 Start File for LAMMPS

 923 atoms

 2 atom types
 
  -0.0 200.0 xlo xhi
  -0.0 200.0 ylo yhi
  -0.0 200.0 zlo zhi
  
 Masses

 1  XXX
 2  YYY
 
 Atoms



