LAMMPS (21 Jul 2020)
OMP_NUM_THREADS environment is not set. Defaulting to 1 thread. (src/src/comm.cpp:95)
  using 1 OpenMP thread(s) per MPI task
# Initialization

units		  metal
dimension 	      3
boundary	  f f f
atom_style	 atomic


# Atom Definition

read_data atom_definition.txt
  orthogonal box = (-0.0000000 -0.0000000 -0.0000000) to (200.00000 200.00000 200.00000)
  1 by 1 by 1 MPI processor grid
  reading atoms ...
  923 atoms
  read_data CPU = 0.051 seconds


# Settings

pair_style eam/alloy
pair_coeff	* * CuAgAu_Zhou04.eam.alloy Cu Ag
Reading eam/alloy potential file CuAgAu_Zhou04.eam.alloy with DATE: 2018-03-30

velocity         all create 400 12345 mom yes rot yes dist gaussian
timestep         0.002
fix              1 all nvt temp 400 400 $(100.0*dt) drag 0.0 tchain 1 # from 600 600 -> 400 400 (mainting temp, initial temp)
fix              1 all nvt temp 400 400 0.2000000000000000111 drag 0.0 tchain 1 
fix              2 all recenter INIT INIT INIT


dump myDump all custom 200 trajectory.txt id type x y z
dump_modify myDump sort id

thermo 200


# Run a simulation

run              500000
Neighbor list info ...
  update every 1 steps, delay 10 steps, check yes
  max neighbors/atom: 2000, page size: 100000
  master list distance cutoff = 8.4662927
  ghost atom cutoff = 8.4662927
  binsize = 4.2331463, bins = 48 48 48
  1 neighbor lists, perpetual/occasional/extra = 1 0 0
  (1) pair eam/alloy, perpetual
      attributes: half, newton on
      pair build: half/bin/atomonly/newton
      stencil: half/bin/3d/newton
      bin: standard
Per MPI rank memory allocation (min/avg/max) = 5.189 | 5.189 | 5.189 Mbytes
Step Temp E_pair E_mol TotEng Press 
       0          400   -2375.1558            0   -2327.4846   -112.37821 
     200    278.19834   -2576.9156            0   -2543.7605   -8.6780951 
     400    152.44842   -2621.1729            0   -2603.0044    10.073021 
     600      462.941   -2597.9423            0     -2542.77   -4.3013295 
     800     517.4392    -2577.476            0   -2515.8087   -23.212437 
    1000    273.86306   -2622.8224            0    -2590.184    10.380764 
    1200    351.08075   -2620.3961            0   -2578.5551   -2.3835039 
    1400    538.61272   -2595.5046            0   -2531.3138   -3.5436806 
    1600    377.72015   -2618.2068            0    -2573.191   -2.2049915 
    1800    329.93562   -2627.7432            0   -2588.4222    4.9354707 
    2000    456.74292   -2609.5928            0   -2555.1591   0.26591388 
    2200     412.5528   -2609.3723            0   -2560.2051    -1.341061 
    2400    332.42692   -2625.6997            0   -2586.0818    2.1490005 
    2600    387.10369   -2617.1535            0   -2571.0193  -0.65309865 
    2800    457.22633   -2609.3338            0   -2554.8425   -2.7106452 
    3000     357.4338   -2622.0272            0    -2579.429    2.1824363 
    3200    375.10759   -2625.7949            0   -2581.0904    6.4228275 
    3400    444.02392   -2613.5242            0   -2560.6064   -7.1752049 
    3600     404.4347   -2617.9674            0   -2569.7677    7.3644924 
    3800     344.7773    -2625.228            0   -2584.1382   -1.2789139 
    4000    419.53204   -2618.6671            0   -2568.6682    6.8297461 
    4200    430.83245    -2616.019            0   -2564.6733   -7.6138803 
    4400    377.99854   -2625.8293            0   -2580.7803    6.5456438 
    4600    387.01469   -2623.9861            0   -2577.8625   -1.7931797 
    4800    429.43318   -2614.3803            0   -2563.2014    3.0061552 
    5000    383.08487   -2619.5662            0    -2573.911   -6.4932187 
    5200    375.27768   -2624.7918            0    -2580.067    6.2441937 
    5400    430.79938    -2620.991            0   -2569.6492    -0.983915 
    5600    402.88741   -2620.7784            0   -2572.7631    3.6571294 
    5800    378.03673   -2626.0894            0   -2581.0358   -1.7750502 
    6000    418.49539   -2621.9519            0   -2572.0765    4.5352895 
    6200    403.92215   -2619.8124            0   -2571.6738   -7.0905457 
    6400    399.67362   -2628.5529            0   -2580.9207    4.0595878 
    6600    391.56194   -2625.3398            0   -2578.6743    3.1037088 
    6800    429.76035   -2623.7159            0   -2572.4979   -2.0020977 
    7000    398.27157   -2626.2318            0   -2578.7666   -5.0928824 
    7200     380.1564   -2627.9844            0   -2582.6782    3.0823875 
    7400    407.35405    -2625.494            0   -2576.9464  0.051264143 
    7600    405.86025   -2626.5903            0   -2578.2207   0.12993484 
    7800    387.87434   -2628.9578            0   -2582.7318  -0.53608177 
    8000    412.95831   -2628.5931            0   -2579.3776    1.3427179 
    8200    417.20323   -2625.9409            0   -2576.2195   -2.0464176 
    8400    391.51418   -2627.9289            0   -2581.2691   -1.1899065 
    8600    397.14811    -2630.541            0   -2583.2098   -1.3398225 
    8800    421.38673   -2627.8385            0   -2577.6186  -0.44458739 
    9000     387.1724   -2628.0685            0   -2581.9261    2.9752177 
    9200    378.11654   -2628.8383            0   -2583.7752   -3.9889234 
    9400    404.69269   -2626.8441            0   -2578.6137    3.6591842 
    9600    402.47936   -2628.9327            0   -2580.9661   -5.2201483 
    9800     388.3268   -2630.1694            0   -2583.8895    4.2304009 
   10000    405.03259   -2630.0642            0   -2581.7933    1.3267133 
   10200     411.0679   -2629.2834            0   -2580.2932    6.2614738 
   10400    394.00973   -2631.4027            0   -2584.4455  -0.32899951 
   10600    396.63541   -2629.3782            0   -2582.1081    1.2617726 
   10800     398.0761   -2628.0414            0   -2580.5996   0.26266286 
   11000      400.537   -2630.4569            0   -2582.7217    2.1841966 
   11200    396.79266   -2631.2725            0   -2583.9836    -1.183075 
   11400    394.95874   -2629.3432            0   -2582.2729    1.3117018 
   11600    407.38298   -2632.6379            0   -2584.0868   -1.1716579 
   11800    390.66365   -2628.4747            0   -2581.9163  -0.80988102 
   12000    401.92772   -2628.3527            0   -2580.4519   0.54675525 
   12200    400.74512   -2631.6639            0    -2583.904     4.005723 
   12400     398.3417   -2631.0439            0   -2583.5703   -3.0921165 
   12600    413.43636   -2630.0931            0   -2580.8206   0.82847181 
   12800    395.05487   -2631.4187            0   -2584.3369   -5.3040341 
   13000    390.46315   -2630.4206            0   -2583.8861    3.3506636 
   13200    409.32677   -2629.8026            0   -2581.0199    -2.483108 
   13400     387.4088   -2629.1503            0   -2582.9798    1.2146248 
   13600    404.92288   -2632.1802            0   -2583.9224   -1.5446509 
   13800    407.15433   -2632.6015            0   -2584.0778    1.8266051 
   14000    412.78155   -2631.5071            0   -2582.3127   -2.3856714 
   14200    397.93814   -2632.2624            0    -2584.837   -3.9832318 
   14400      400.282   -2632.8579            0   -2585.1532    2.1872745 
   14600    393.65515   -2632.5417            0   -2585.6267   -3.6681025 
   14800     406.1622   -2632.6349            0   -2584.2293   -1.0855364 
   15000    393.31466   -2631.8288            0   -2584.9544   -2.8946686 
   15200    408.22535   -2633.6125            0   -2584.9611    7.8575007 
   15400    406.46398   -2631.5131            0   -2583.0716   -4.8404936 
   15600     406.3884   -2631.6102            0   -2583.1777    4.4042972 
   15800    385.95143   -2631.3043            0   -2585.3074  0.042242542 
   16000    390.94675   -2632.5084            0   -2585.9162    2.0488293 
   16200    411.95998   -2631.7444            0   -2582.6479   -2.3755912 
   16400    398.27661    -2631.492            0   -2584.0262   -2.9627733 
   16600     395.8539   -2633.0757            0   -2585.8987   -4.3408169 
   16800    406.42971   -2632.4326            0   -2583.9952   -4.0984981 
   17000    398.88233    -2630.619            0    -2583.081  -0.84448434 
   17200    400.07194   -2633.3106            0   -2585.6309     2.891888 
   17400    369.26878    -2631.931            0   -2587.9223    1.5302815 
   17600    409.63113    -2632.005            0   -2583.1861    1.6575707 
   17800    406.79796   -2633.3007            0   -2584.8194   -4.2428781 
   18000    390.38329   -2635.2208            0   -2588.6958   0.76586898 
   18200    396.41023   -2632.1749            0   -2584.9315   -2.0331576 
   18400    398.05956   -2630.7604            0   -2583.3205      1.47689 
   18600     382.3873   -2633.2241            0    -2587.652    1.8861252 
   18800    397.33506   -2634.7427            0   -2587.3891   0.41105743 
   19000    402.00475   -2631.3224            0   -2583.4124    0.3770598 
   19200    395.81411   -2632.7393            0    -2585.567    6.4477906 
   19400    389.05752   -2633.8477            0   -2587.4807    -2.229872 
   19600    418.88064   -2634.2889            0   -2584.3676    1.5540548 
   19800    409.12833   -2633.9968            0   -2585.2378   -4.4006342 
   20000    386.93948   -2634.0865            0   -2587.9719    4.2641342 
   20200    408.72471   -2634.5413            0   -2585.8304   -3.7608348 
   20400    409.92623    -2634.391            0   -2585.5369   -1.0120794 
   20600      408.495   -2635.5314            0   -2586.8479   -4.4935466 
   20800    407.23848   -2633.6028            0    -2585.069    1.6137374 
   21000    393.49978   -2632.8141            0   -2585.9177   -2.9307286 
   21200    377.55256   -2632.7921            0   -2587.7962   -2.9162762 
   21400    411.60029   -2633.9514            0   -2584.8978    1.2697465 
   21600     386.4104   -2632.1162            0   -2586.0646    1.0583995 
   21800    393.40849   -2633.6974            0   -2586.8119    2.2478396 
   22000    394.32752   -2632.6891            0    -2585.694    1.6152074 
   22200    398.38313   -2631.5533            0   -2584.0748    4.2339396 
   22400    399.06801   -2632.4331            0   -2584.8731    1.1303321 
   22600    381.64676   -2633.5558            0    -2588.072    2.8011318 
   22800    406.46699   -2634.7145            0   -2586.2727   -1.7373177 
   23000    408.22857   -2632.6617            0   -2584.0099   -1.3327192 
   23200    386.59387   -2634.2432            0   -2588.1698   -2.4933873 
   23400    387.37378   -2633.9057            0   -2587.7393    3.9635847 
   23600    401.23176   -2632.5373            0   -2584.7194   -3.8391205 
   23800    416.38239   -2635.7384            0   -2586.1148      3.30989 
   24000    394.38962   -2634.9641            0   -2587.9616   -2.1285482 
   24200    397.99671   -2632.3657            0   -2584.9333    1.9705041 
   24400    407.13585   -2633.8856            0    -2585.364   -2.9069411 
   24600    394.66355   -2635.5216            0   -2588.4865    4.5533443 
   24800    388.73702    -2633.398            0   -2587.0692  -0.82979654 
   25000    404.09084   -2633.6275            0   -2585.4689   -1.8046574 
   25200    405.43677   -2635.6908            0   -2587.3717   -1.7246098 
   25400    403.37721   -2635.8011            0   -2587.7274   0.10688728 
   25600    403.34086   -2634.3096            0   -2586.2403   -1.9616505 
   25800    396.66209   -2633.9414            0    -2586.668    0.1425008 
   26000     409.6016   -2635.5839            0   -2586.7685     1.702212 
   26200    387.66567   -2632.7784            0   -2586.5772    -6.019318 
   26400    394.97439   -2633.8754            0   -2586.8032    1.4582273 
   26600     387.2509   -2633.9476            0   -2587.7959      2.07007 
   26800    404.58558   -2634.4751            0   -2586.2574   0.10245872 
   27000    399.00178   -2633.2012            0    -2585.649    1.2686963 
   27200    423.55137   -2638.8515            0   -2588.3736   -1.9390254 
   27400    400.93366   -2634.2955            0   -2586.5131   -4.1355107 
   27600    401.88544   -2632.7911            0   -2584.8953   0.29362513 
   27800    398.04384   -2635.9015            0   -2588.4635  -0.26967011 
   28000      381.684   -2633.1519            0   -2587.6636    1.7983421 
   28200    407.12286    -2633.786            0   -2585.2659    2.9187272 
   28400    383.96813   -2635.9701            0   -2590.2096   -2.4449753 
   28600     395.3078   -2635.9592            0   -2588.8473    1.2172676 
   28800    414.45876   -2632.9917            0   -2583.5974   -5.0422206 
   29000     395.6811   -2636.0891            0   -2588.9327    2.8441873 
   29200    376.21125   -2637.8235            0   -2592.9874    5.0038943 
   29400     415.0728   -2634.8037            0   -2585.3363   -4.2384976 
   29600    416.72324    -2635.628            0   -2585.9638   -1.3258465 
   29800    383.74752   -2639.4973            0   -2593.7631  -0.80623622 
   30000     410.4592   -2637.3793            0   -2588.4616    7.5145843 
   30200    394.58807   -2634.7332            0    -2587.707   0.27236882 
   30400    401.44566   -2637.5736            0   -2589.7302     3.328452 
   30600    394.72084   -2636.6484            0   -2589.6065   -1.2811988 
   30800    413.81263   -2637.3821            0   -2588.0648    3.0787063 
   31000    396.24899   -2636.4436            0   -2589.2195   -1.1040855 
   31200    412.09656   -2637.7774            0   -2588.6646    3.5689579 
   31400    403.21077   -2637.4883            0   -2589.4345   -2.7397438 
   31600    377.58007   -2636.1816            0   -2591.1824    5.1628314 
   31800    384.20892   -2634.2045            0   -2588.4153    1.1991496 
   32000    410.18443   -2635.2068            0   -2586.3219   0.39286987 
   32200     389.2735   -2638.6282            0   -2592.2354   -1.3359835 
   32400    395.84327   -2639.6434            0   -2592.4677    3.4193355 
   32600    429.95536   -2638.4568            0   -2587.2157   -1.1228331 
   32800    396.23254   -2639.4599            0   -2592.2377    1.8847668 
   33000    383.85417   -2636.8844            0   -2591.1375   0.83769543 
   33200    420.81007   -2637.5778            0   -2587.4265    1.6346875 
   33400     395.5738   -2640.1033            0   -2592.9596   0.40286373 
   33600    402.79757   -2640.4596            0    -2592.455   -2.2820552 
   33800     413.0834    -2636.586            0   -2587.3556   -3.2510471 
   34000    389.76142   -2638.3863            0   -2591.9353    1.1643297 
   34200    397.29266    -2641.883            0   -2594.5345  0.096085028 
   34400    404.35989   -2637.0561            0   -2588.8653    -3.618942 
   34600    400.33472   -2636.6993            0   -2588.9883    1.3536702 
   34800     383.9785   -2641.8258            0    -2596.064   -1.5963139 
   35000    399.11962   -2639.1185            0   -2591.5523    5.0033808 
   35200    408.36204   -2636.2579            0   -2587.5902   -4.7407055 
   35400    396.02843   -2640.5101            0   -2593.3123   -0.1734466 
   35600    387.83301   -2640.9778            0   -2594.7567    0.4690856 
   35800    392.86281   -2635.6165            0    -2588.796    1.2828202 
   36000    404.71849    -2638.832            0   -2590.5985   -2.0855466 
   36200     404.2818   -2642.1572            0   -2593.9758   -4.3080207 
   36400    394.86728   -2639.0475            0    -2591.988     -4.28742 
   36600    401.68365   -2638.9531            0   -2591.0813   -2.6845223 
   36800    398.73991   -2639.4814            0   -2591.9604   -0.6013377 
   37000    390.06777   -2639.6779            0   -2593.1904  -0.64727053 
   37200    404.88621   -2638.5272            0   -2590.2737   -0.7303163 
   37400    404.48198   -2639.4842            0    -2591.279   -3.7381485 
   37600    413.48444   -2642.0948            0   -2592.8166  -0.77598866 
   37800     401.2342   -2639.9538            0   -2592.1356   -4.9644066 
   38000    418.54599   -2640.3104            0    -2590.429    2.8760388 
   38200    396.29546   -2640.1372            0   -2592.9076   -4.7547462 
   38400    399.43997   -2642.0095            0   -2594.4051   -1.9681608 
   38600    411.95902   -2638.7773            0   -2589.6809   -2.3143639 
   38800    405.07217   -2639.2104            0   -2590.9348    3.4216245 
   39000    371.44658   -2638.9956            0   -2594.7274   -1.0035954 
   39200    402.89434   -2639.0645            0   -2591.0485   -4.2887467 
   39400    407.62679   -2637.5024            0   -2588.9223    1.4247398 
   39600    384.84112   -2638.7584            0   -2592.8939   0.70803201 
   39800    406.42737   -2640.8505            0   -2592.4134   -2.6048379 
   40000    407.05052   -2638.5536            0   -2590.0422    2.0377934 
   40200    403.84945   -2639.4356            0   -2591.3057    2.2595762 
   40400    388.00592   -2637.6166            0   -2591.3749    1.6493422 
   40600    416.09656   -2642.1477            0   -2592.5582   -5.0163442 
   40800    419.49761   -2640.9069            0    -2590.912    1.8129887 
   41000    389.17896   -2638.0692            0   -2591.6877   0.96667035 
   41200    394.26802   -2638.8649            0   -2591.8769  0.092659057 
   41400    412.68703   -2640.9277            0   -2591.7445    -2.284382 
   41600    407.52443   -2641.5368            0   -2592.9689    3.3644442 
   41800    392.13339   -2639.8671            0   -2593.1335     -3.27497 
   42000    423.67869   -2639.8495            0   -2589.3564    1.3093051 
   42200    394.48115   -2640.0107            0   -2592.9972    1.2302976 
   42400     392.0269   -2642.0846            0   -2595.3637    4.5130941 
   42600     381.7077   -2636.6352            0   -2591.1441   -2.2742971 
   42800    436.24764    -2639.626            0    -2587.635    4.3902087 
   43000    382.76802   -2640.9057            0   -2595.2883   -2.7277818 
   43200    410.74015   -2642.2886            0   -2593.3374    4.7168994 
   43400    417.59343   -2637.9906            0   -2588.2227    -3.036171 
   43600     388.3709    -2639.719            0   -2593.4338    3.1835118 
   43800    402.94551   -2643.8475            0   -2595.8253  0.073166965 
   44000    412.86958   -2638.9387            0   -2589.7337   -2.1227239 
   44200    404.45168   -2638.0983            0   -2589.8966   -1.1563339 
   44400    378.46918   -2640.2473            0   -2595.1422    7.1113635 
   44600    399.96056   -2640.2427            0   -2592.5763   -3.7707029 
   44800    402.88218   -2637.2234            0   -2589.2088    6.1196908 
   45000    393.03205   -2640.4094            0   -2593.5686    -2.742533 
   45200    390.63576   -2640.2339            0   -2593.6788    3.9979788 
   45400    413.23882    -2640.327            0   -2591.0781   -4.0019151 
   45600    406.14594   -2642.5019            0   -2594.0983    2.8614934 
   45800    385.32703     -2641.07            0   -2595.1476   -3.1457938 
   46000    413.55435    -2641.987            0   -2592.7005   0.72562187 
   46200    386.28861   -2640.0992            0   -2594.0621    1.5213357 
   46400    396.44414   -2642.0762            0   -2594.8288    2.8939795 
   46600    398.46781   -2641.3404            0   -2593.8518   -3.4310925 
   46800    406.05751   -2641.5216            0   -2593.1285     2.589429 
   47000      403.388   -2643.3024            0   -2595.2275     -2.07382 
   47200    407.71997   -2644.0713            0   -2595.4801      3.41649 
   47400    401.42001   -2643.0692            0   -2595.2288    -5.190576 
   47600    410.45577   -2643.7073            0     -2594.79  -0.62015921 
   47800    397.33809   -2643.4077            0   -2596.0538   -5.6134888 
   48000    401.36597   -2643.0497            0   -2595.2157     3.699492 
   48200    391.71581   -2641.7924            0   -2595.1086   -6.4457475 
   48400    401.03752   -2643.2279            0   -2595.4331    2.5214052 
   48600    386.71684   -2642.4924            0   -2596.4043   0.29630176 
   48800    385.19034   -2641.8856            0   -2595.9795     7.877637 
   49000    395.43309   -2643.2092            0   -2596.0823   -3.3862847 
   49200    424.62659   -2644.6547            0   -2594.0486    2.9588298 
   49400    390.12104   -2643.5692            0   -2597.0754   -7.7901176 
   49600    402.86756   -2644.0738            0   -2596.0609    2.7431792 
   49800    394.71519   -2641.1586            0   -2594.1173   -2.5049654 
   50000    390.93801   -2643.1422            0    -2596.551    1.6072236 
   50200    393.72262   -2644.5464            0   -2597.6234   -2.9083975 
   50400    416.53258   -2643.1371            0   -2593.4957    3.2859479 
   50600    418.85158   -2645.4722            0   -2595.5543   -2.1543875 
   50800    378.44611   -2642.6867            0   -2597.5843    3.1716793 
   51000    422.31526   -2643.9492            0   -2593.6185    -2.691227 
   51200    404.12915   -2642.6235            0   -2594.4602    1.2082757 
   51400    388.05186   -2645.2403            0   -2598.9932    -2.714137 
   51600    416.78939   -2644.7442            0   -2595.0722  -0.65462788 
   51800    403.68082   -2641.8796            0   -2593.7697   0.59221931 
   52000    396.72065   -2644.6834            0   -2597.4031  -0.32242547 
   52200    387.30078   -2642.1254            0   -2595.9677    6.0282079 
   52400    407.41238    -2641.156            0   -2592.6015   -2.5440596 
   52600    384.41515   -2642.0009            0   -2596.1871    4.8136729 
   52800    399.14797   -2645.0963            0   -2597.5267  -0.50072263 
   53000    404.66853   -2640.5258            0   -2592.2983   0.90839091 
   53200    381.25893   -2640.1478            0   -2594.7102   -1.4453963 
   53400    391.94006   -2645.3641            0   -2598.6535    1.7965458 
   53600    404.86058   -2643.5482            0   -2595.2977   0.59359023 
   53800    414.72619   -2643.5316            0   -2594.1054   0.49226636 
   54000    388.92018   -2643.3759            0   -2597.0253   -2.4699974 
   54200     398.2528   -2644.1833            0   -2596.7204    3.7143802 
   54400    403.92876    -2642.726            0   -2594.5866   -2.1127209 
   54600    397.12521   -2641.5406            0   -2594.2121    5.9198902 
   54800    377.71997   -2642.4437            0   -2597.4279    -6.534361 
   55000    395.28301   -2642.5588            0   -2595.4498    7.1880447 
   55200    405.79056   -2642.7503            0   -2594.3891   -2.8345938 
   55400    384.82764   -2640.0449            0    -2594.182    8.2297139 
   55600    392.22626   -2644.2635            0   -2597.5188   -2.5254352 
   55800    403.95733   -2643.2238            0   -2595.0811    3.4664437 
   56000    410.29046   -2643.6705            0    -2594.773   -7.2065327 
   56200    400.57482   -2644.5142            0   -2596.7746   0.39165905 
   56400    412.74397   -2645.3312            0   -2596.1413   0.53861461 
   56600    405.07876   -2642.4119            0   -2594.1355   -3.6250446 
   56800    395.33637   -2641.7827            0   -2594.6673    2.5145858 
   57000    384.16094   -2643.7147            0   -2597.9312   -0.6512986 
   57200    411.05898     -2644.56            0   -2595.5709    2.4826188 
   57400    407.69643   -2642.1473            0   -2593.5589   -3.0257242 
   57600    389.41424   -2643.7536            0   -2597.3441    1.2824096 
   57800    407.54114   -2645.9944            0   -2597.4246   -3.5739469 
   58000    405.10946   -2642.8515            0   -2594.5714   0.72423127 
   58200    396.15392   -2642.9256            0   -2595.7128    -1.416497 
   58400    389.34832   -2644.6761            0   -2598.2744    2.1057105 
   58600    390.57391   -2643.4378            0     -2596.89   -3.8224153 
   58800    409.40671   -2643.4141            0   -2594.6219    2.5708998 
   59000    399.16556   -2645.8547            0    -2598.283   -5.0620206 
   59200    416.75438   -2645.7111            0   -2596.0432    1.7821431 
   59400    389.55142   -2642.4479            0    -2596.022   -4.4331383 
   59600    404.39476   -2644.5969            0    -2596.402    4.4834249 
   59800    398.99131   -2643.7887            0   -2596.2378    4.4406152 
   60000    403.82287   -2644.1167            0     -2595.99    2.5222272 
   60200    415.26703   -2645.7721            0   -2596.2815    2.1124512 
   60400     382.8947   -2644.1879            0   -2598.5553  -0.52111361 
   60600    393.65537   -2641.9379            0   -2595.0229    8.4051655 
   60800    404.37622   -2643.7972            0   -2595.6045   -5.8797914 
   61000    400.79744   -2644.8812            0    -2597.115    6.2582204 
   61200    387.32519   -2644.2129            0   -2598.0523    1.7177072 
   61400    416.36758   -2644.9342            0   -2595.3124    6.3903812 
   61600    392.84799   -2643.2434            0   -2596.4246   -5.0353507 
   61800    379.08128   -2642.9618            0   -2597.7837    3.3703243 
   62000    405.95927   -2644.3006            0   -2595.9192   0.43622051 
   62200    386.70108   -2643.7807            0   -2597.6945  -0.57075423 
   62400    401.37153   -2645.8803            0   -2598.0457   -1.8459638 
   62600    397.75765   -2645.5484            0   -2598.1445     1.701617 
   62800    408.46231   -2644.0203            0   -2595.3406    1.4448002 
   63000    392.34112   -2644.1912            0   -2597.4328  0.096191432 
   63200    409.00377   -2646.9255            0   -2598.1813   -2.8542867 
   63400    406.35861    -2645.007            0    -2596.578    6.3851502 
   63600    401.45774   -2646.0553            0   -2598.2104   -6.5978891 
   63800    409.78678   -2647.0692            0   -2598.2317    1.6332194 
   64000    390.02273   -2646.0306            0   -2599.5485   -7.0331234 
   64200    405.60418   -2645.1176            0   -2596.7786    4.3497801 
   64400     398.2195   -2645.1788            0   -2597.7198   -2.7151107 
   64600    389.28648   -2645.5572            0   -2599.1629    2.8264353 
   64800    406.33183   -2646.9431            0   -2598.5174   -4.1022593 
   65000    407.36971   -2646.2757            0   -2597.7262    2.3998302 
   65200    398.53623   -2646.0325            0   -2598.5358   -2.1095167 
   65400    400.03594   -2647.4417            0   -2599.7663    2.6293955 
   65600    400.89167   -2646.3207            0   -2598.5432   -2.3317894 
   65800    407.73041   -2646.5472            0   -2597.9547 -0.039143936 
   66000    406.43096   -2647.5725            0   -2599.1349  -0.33245812 
   66200    399.32591   -2647.2128            0    -2599.622    3.1673163 
   66400    395.47271   -2646.1268            0   -2598.9952   0.20558787 
   66600    407.92165   -2646.3579            0   -2597.7427   0.07929041 
   66800    416.88322    -2649.141            0   -2599.4577   -3.3048782 
   67000    388.03379   -2646.3497            0   -2600.1047  -0.45720313 
   67200     400.2767   -2646.5266            0   -2598.8225    1.7545706 
   67400    394.67002    -2645.407            0   -2598.3711    2.2303337 
   67600    406.19781   -2647.1783            0   -2598.7685   -2.7010059 
   67800    403.64041   -2648.5198            0   -2600.4148    2.8543001 
   68000    402.82788   -2646.3184            0   -2598.3102    4.0750361 
   68200    407.47749   -2646.6507            0   -2598.0884   -2.1510299 
   68400    407.63294   -2648.1366            0   -2599.5558   -1.3064294 
   68600    398.44237   -2647.5761            0   -2600.0906   0.65654508 
   68800    402.37722   -2647.5244            0     -2599.57   -2.3313909 
   69000    386.56728   -2645.1907            0   -2599.1204    6.4209751 
   69200    393.97781   -2645.7621            0   -2598.8086   -2.5212851 
   69400    401.78223   -2646.3291            0   -2598.4456   -1.9513992 
   69600    391.56619   -2646.8448            0   -2600.1788   -2.3691398 
   69800    413.23351   -2649.0851            0   -2599.8369   -1.5754554 
   70000     395.3535   -2646.2885            0   -2599.1711   -2.0393288 
   70200     400.5926   -2647.4445            0   -2599.7027   -6.4992637 
   70400    383.21031   -2645.0014            0   -2599.3312    4.3128086 
   70600    415.45793   -2649.0692            0   -2599.5558   -3.7295589 
   70800    403.29851   -2648.0378            0   -2599.9736    2.5379785 
   71000    392.46931   -2645.4621            0   -2598.6885   -2.1363721 
   71200    401.26295   -2646.8452            0   -2599.0236    3.7245651 
   71400    399.99391   -2647.9352            0   -2600.2648   -5.3546858 
   71600    413.01385   -2649.5777            0   -2600.3556 -0.058488707 
   71800    396.56494   -2647.0062            0   -2599.7445    -1.864023 
   72000    408.66058   -2648.2005            0   -2599.4972   -1.8417669 
   72200     410.3501   -2649.8917            0   -2600.9871     2.139693 
   72400    388.45107   -2647.2184            0   -2600.9236    3.8307104 
   72600    421.14278   -2648.5856            0   -2598.3947   -3.4961634 
   72800    401.79615    -2648.054            0   -2600.1688    2.5181781 
   73000    389.85473   -2649.5167            0   -2603.0547  -0.95153908 
   73200    404.82341   -2646.3721            0   -2598.1262   -1.5105326 
   73400    409.27717   -2648.1697            0   -2599.3929   -5.0792668 
   73600    395.07538   -2649.7394            0   -2602.6551    1.0745544 
   73800    404.96767   -2648.1344            0   -2599.8712   -4.6161166 
   74000    404.05804   -2646.3544            0   -2598.1996    2.7841946 
   74200    394.37778   -2649.6008            0   -2602.5998    -3.493299 
   74400     412.1491    -2648.793            0   -2599.6739    2.9487697 
   74600    411.51168   -2648.1923            0   -2599.1492   -2.7474595 
   74800    401.54497   -2648.1492            0   -2600.2939    2.0428979 
   75000    397.90367    -2647.485            0   -2600.0637    2.2600099 
   75200    410.43345    -2648.304            0   -2599.3894    1.8997525 
   75400    392.76228   -2646.3254            0   -2599.5168    4.1859857 
   75600    406.20139   -2649.0913            0   -2600.6811    -4.017455 
   75800    403.46123   -2649.1905            0   -2601.1069    5.4267792 
   76000    402.13443   -2646.3227            0   -2598.3972   -1.7311326 
   76200    406.60995   -2646.5037            0   -2598.0448    4.0683329 
   76400    376.59321   -2650.3622            0   -2605.4807   -2.6573234 
   76600    401.64659   -2648.0638            0   -2600.1964    4.2157155 
   76800    403.76776   -2645.3464            0   -2597.2262   -3.5064367 
   77000    392.92826   -2650.9783            0     -2604.15    2.9294535 
   77200    381.55329   -2649.5781            0   -2604.1054   -6.1283822 
   77400    416.22543   -2645.1978            0   -2595.5929    5.3506211 
   77600    412.61994   -2651.0751            0      -2601.9   0.52776781 
   77800    376.72182   -2650.7621            0   -2605.8652    3.2643419 
   78000    409.38431   -2647.6828            0   -2598.8932   -2.4344032 
   78200    411.54726   -2647.2458            0   -2598.1985    1.3826986 
   78400    389.42427    -2650.949            0   -2604.5382  -0.34076436 
   78600    389.45349    -2650.249            0   -2603.8348    4.0432404 
   78800    399.57898   -2645.8658            0   -2598.2448    -1.717242 
   79000    397.15902   -2649.4427            0   -2602.1101   0.88227791 
   79200    385.23999   -2650.0622            0   -2604.1501   -2.8521012 
   79400    399.49299    -2648.276            0   -2600.6653    3.3294938 
   79600    397.95538   -2648.6161            0   -2601.1886   -8.1999223 
   79800    403.75021   -2651.7405            0   -2603.6224    4.6240323 
   80000    394.35078   -2651.0702            0   -2604.0723   -7.3646902 
   80200    406.18096   -2647.9174            0   -2599.5096    7.1322724 
   80400    411.36824   -2652.6067            0   -2603.5807   -8.9070655 
   80600    388.87595   -2651.9267            0   -2605.5813    10.939237 
   80800    393.62407   -2649.8641            0   -2602.9529   -7.8785352 
   81000    397.27661   -2649.9521            0   -2602.6055    6.2108883 
   81200    394.90095   -2651.8393            0   -2604.7759   -2.5431803 
   81400    396.91627   -2651.4141            0   -2604.1105   0.72254863 
   81600    400.25341   -2650.8174            0   -2603.1161   -0.3490761 
   81800    401.15144   -2651.3612            0   -2603.5528   0.95022932 
   82000    392.94285   -2652.2648            0   -2605.4348   0.68823631 
   82200     403.0263   -2650.8959            0   -2602.8641    2.5966969 
   82400    409.40163   -2652.2154            0   -2603.4238   -4.0560252 
   82600    394.29999   -2652.2751            0   -2605.2832   0.53288207 
   82800    393.22645   -2651.1769            0   -2604.3131   -2.1507209 
   83000    398.23627    -2651.195            0   -2603.7341    1.6574853 
   83200     396.3132   -2653.2129            0   -2605.9812   -5.4710932 
   83400    410.04994   -2653.0497            0   -2604.1808    1.3047246 
   83600    397.21739   -2650.3535            0    -2603.014   -3.9660113 
   83800     411.3916   -2652.0395            0   -2603.0108     5.371514 
   84000    404.91075   -2654.9907            0   -2606.7343   -5.2065172 
   84200    416.62993   -2653.0046            0   -2603.3515    5.6875678 
   84400    391.93743    -2651.661            0   -2604.9507    1.0895497 
   84600    394.78841    -2653.014            0    -2605.964     4.230367 
   84800    382.60869   -2649.8904            0   -2604.2919  0.028138603 
   85000    416.98193    -2651.875            0     -2602.18    2.1908023 
   85200    387.74464   -2652.8187            0   -2606.6081   -4.2802147 
   85400     407.3988    -2653.957            0   -2605.4041    3.8540667 
   85600    400.81538   -2650.2676            0   -2602.4993   -3.7383598 
   85800    407.38206   -2654.4225            0   -2605.8716     4.192982 
   86000    381.75494    -2652.352            0   -2606.8553  -0.41804943 
   86200    402.93813   -2650.5909            0   -2602.5696    2.5562593 
   86400    412.09933   -2653.6612            0   -2604.5481   -5.5205446 
   86600     402.6279   -2654.7386            0   -2606.7543  -0.42278697 
   86800    394.96491   -2650.0802            0   -2603.0091   -1.4739575 
   87000    409.50298   -2653.2161            0   -2604.4124   0.18688166 
   87200    403.71054   -2654.9911            0   -2606.8777   -1.9038208 
   87400    404.84278   -2651.6839            0   -2603.4356  -0.89619997 
   87600    394.70372   -2651.1554            0   -2604.1155   -2.7393213 
   87800    394.74404   -2653.2819            0   -2606.2371   0.56760005 
   88000    408.03354   -2652.8699            0   -2604.2413   -2.2994347 
   88200    398.19365   -2650.9911            0   -2603.5353    7.8500218 
   88400    396.63694   -2653.6784            0   -2606.4081   -4.1098873 
   88600    400.53894   -2653.3338            0   -2605.5984    4.6994781 
   88800    393.32216   -2651.1623            0    -2604.287   -1.8136914 
   89000    412.37851    -2653.316            0   -2604.1696    5.1641367 
   89200    394.64477   -2651.9374            0   -2604.9044   -1.5806745 
   89400    408.74896   -2653.9032            0   -2605.1893     6.429017 
   89600    384.44116   -2651.1364            0   -2605.3195    -4.362294 
   89800    402.39818   -2651.7508            0   -2603.7938    6.3392316 
   90000    393.67808   -2652.3835            0   -2605.4658   -6.6894315 
   90200    412.00532   -2653.4124            0   -2604.3105    5.2821709 
   90400    411.51767   -2652.5035            0   -2603.4597    -8.912337 
   90600     407.8709   -2654.1369            0   -2605.5278    9.2934518 
   90800    395.22587   -2652.7268            0   -2605.6246   -2.7204507 
   91000    420.94464   -2653.9849            0   -2603.8176    3.6333885 
   91200    394.45025   -2653.1511            0   -2606.1413    -5.168174 
   91400    409.12483   -2653.1355            0   -2604.3769   -2.7862376 
   91600    425.71088   -2652.5554            0   -2601.8201    -1.289672 
   91800    388.42532   -2652.2287            0    -2605.937  -0.22005145 
   92000    393.60802   -2653.2943            0    -2606.385   0.54908258 
   92200    419.29286   -2652.0941            0   -2602.1237    1.6743088 
   92400    388.16774   -2651.4805            0   -2605.2195    4.0331193 
   92600    394.18083   -2653.6512            0   -2606.6736   -1.6628003 
   92800    406.56866   -2652.6742            0   -2604.2202    4.8213168 
   93000    389.09634   -2650.3473            0   -2603.9757   -6.0246789 
   93200     399.3456   -2652.8265            0   -2605.2333    3.0147109 
   93400    388.13894   -2652.8811            0   -2606.6236    -1.814337 
   93600    413.36357   -2652.4043            0   -2603.1405    1.6798332 
   93800    402.31483   -2652.4785            0   -2604.5315   -2.6788267 
   94000     409.6321   -2654.7105            0   -2605.8914  -0.12340364 
   94200    391.64571   -2652.8849            0   -2606.2094    4.2121304 
   94400    408.51903   -2652.5659            0   -2603.8795   -1.3144255 
   94600    401.02449    -2652.589            0   -2604.7958    2.4307646 
   94800     397.0904   -2654.9801            0   -2607.6557   -2.0930336 
   95000     401.9077    -2652.135            0   -2604.2365    5.2792094 
   95200    407.59431   -2653.2959            0   -2604.7197   -4.5497528 
   95400    387.78748   -2653.5882            0   -2607.3725    4.1263627 
   95600    404.83388   -2655.1516            0   -2606.9044   -3.6798447 
   95800    427.36781   -2654.7597            0   -2603.8269    0.4184661 
   96000    392.53642    -2653.279            0   -2606.4973   -2.5589863 
   96200    389.42404   -2656.7335            0   -2610.3228    1.8777982 
   96400    409.50546    -2653.375            0    -2604.571   -0.4065647 
   96600    415.52442   -2654.1183            0    -2604.597    -2.215027 
   96800     387.0702   -2658.0045            0   -2611.8743    2.9752634 
   97000    396.03289   -2656.2421            0   -2609.0438    0.9268255 
   97200    411.71735   -2651.8923            0   -2602.8247    2.8934391 
   97400    407.12839   -2655.6854            0   -2607.1647  -0.43944114 
   97600    387.45391   -2657.3196            0   -2611.1436   -3.7264391 
   97800    411.56604   -2653.3889            0   -2604.3394    5.3131628 
   98000    413.00971   -2654.1554            0   -2604.9338   -4.5325948 
   98200    386.83731   -2660.0798            0   -2613.9774    4.1369529 
   98400    411.11316   -2657.2429            0   -2608.2474   -3.3835395 
   98600    421.06739   -2652.0643            0   -2601.8824   0.22995665 
   98800    392.72419   -2659.1132            0   -2612.3092  -0.45775822 
   99000    387.86417   -2658.4006            0   -2612.1757    1.1563098 
   99200    414.67272   -2653.2541            0   -2603.8343  -0.37983832 
   99400    387.39216   -2654.3977            0   -2608.2292   -1.6795731 
   99600    382.95518   -2658.6035            0   -2612.9638    -1.540612 
   99800    399.49165   -2654.2343            0   -2606.6238    1.0717184 
  100000    400.01603   -2653.3713            0   -2605.6983    3.1729774 
  100200    380.95102    -2657.313            0   -2611.9121    2.3211333 
  100400    399.78435   -2658.0229            0   -2610.3775  -0.41188509 
  100600    414.40114   -2654.5205            0   -2605.1331   -2.5807419 
  100800    400.92278   -2656.8702            0   -2609.0891   -1.9786365 
  101000    401.80878   -2659.9592            0   -2612.0725   -1.5846002 
  101200    402.31835   -2655.8372            0   -2607.8897   0.72956232 
  101400     412.6684   -2655.3758            0   -2606.1948   -4.5816082 
  101600    398.09118   -2657.2913            0   -2609.8476  -0.46001962 
  101800    392.04452   -2658.5096            0   -2611.7866   -6.6545463 
  102000    412.40901   -2657.0159            0   -2607.8659    1.6997356 
  102200    411.04242   -2657.5562            0   -2608.5691    -3.733523 
  102400    386.74757   -2656.7961            0   -2610.7044  -0.76809289 
  102600     407.9687   -2658.5659            0   -2609.9451    1.8713766 
  102800    402.62864   -2656.7556            0   -2608.7712   -3.0835691 
  103000    387.82954   -2657.2986            0   -2611.0779   -1.2245068 
  103200    414.73145   -2660.9197            0   -2611.4929  -0.92944183 
  103400    393.52331   -2657.4838            0   -2610.5845   -4.6565994 
  103600    411.09481   -2658.4201            0   -2609.4267  -0.57956406 
  103800     399.1373   -2659.7909            0   -2612.2226   0.59236758 
  104000    410.25187   -2661.3783            0   -2612.4853    1.0982273 
  104200    412.71031   -2657.6721            0   -2608.4862    3.0813536 
  104400     418.0956   -2660.3235            0   -2610.4958   -4.5190485 
  104600     398.6807   -2660.4461            0   -2612.9322    2.8444654 
  104800    412.82681    -2658.246            0   -2609.0462   -4.9875982 
  105000    406.01576   -2656.7898            0   -2608.4017   0.55372975 
  105200    397.01924   -2660.3936            0   -2613.0777   -3.9016553 
  105400    401.46446   -2658.3874            0   -2610.5417    1.5620427 
  105600    410.30375   -2656.7491            0     -2607.85   -1.3744121 
  105800    396.41928   -2659.6042            0   -2612.3598    4.9362773 
  106000    398.19228   -2660.8085            0   -2613.3528    1.4803328 
  106200    433.83306    -2659.507            0   -2607.8037   -3.6066198 
  106400    386.34026   -2656.5379            0   -2610.4947    1.6405133 
  106600    382.14056    -2659.069            0   -2613.5263   0.56916998 
  106800    403.73932   -2657.1776            0   -2609.0608    3.9836106 
  107000    397.03809   -2657.6005            0   -2610.2824    1.6936967 
  107200    412.38179   -2662.5831            0   -2613.4363   -1.1478312 
  107400    402.67888   -2658.4783            0   -2610.4879    2.0126138 
  107600    403.58429   -2657.5513            0    -2609.453   -2.0960879 
  107800    397.93797   -2660.0896            0   -2612.6642   -1.2187118 
  108000     390.1493    -2659.585            0   -2613.0878    -2.179567 
  108200    425.80856   -2659.2408            0   -2608.4938   -5.7568289 
  108400     396.0202   -2657.8639            0   -2610.6671   0.91656849 
  108600    402.59818   -2661.1896            0   -2613.2088 -0.058374248 
  108800    412.20141   -2659.6211            0   -2610.4959   -1.3491036 
  109000    408.82731   -2659.1677            0   -2610.4445  -0.68185861 
  109200    413.70227   -2661.2891            0    -2611.985  -0.14547186 
  109400    398.59338   -2658.8369            0   -2611.3334   -4.7514687 
  109600      414.576   -2658.7874            0   -2609.3791   0.16941787 
  109800     408.4843    -2661.079            0   -2612.3967   -3.9359063 
  110000    402.27464   -2658.7895            0   -2610.8473    1.5887176 
  110200    387.83044   -2656.0104            0   -2609.7896   -5.4400718 
  110400    397.13315   -2657.3906            0   -2610.0612    3.7036582 
  110600    385.02449   -2659.3373            0   -2613.4509   -2.0700752 
  110800    402.93275   -2658.9762            0   -2610.9555   -2.7009633 
  111000    397.21628    -2657.071            0   -2609.7316  -0.74171326 
  111200    393.60087   -2658.4513            0   -2611.5428   -6.3678581 
  111400    394.05181   -2658.3267            0   -2611.3645    2.9480625 
  111600    389.76088   -2657.6684            0   -2611.2175   -4.0705674 
  111800    392.18378   -2657.0313            0   -2610.2917      8.46423 
  112000    390.48717   -2658.6412            0   -2612.1038   -6.1308949 
  112200    412.81859   -2659.6837            0   -2610.4849    7.0942129 
  112400    397.95589   -2659.1763            0   -2611.7487   -1.5161802 
  112600     409.1239   -2658.6715            0    -2609.913    1.3742574 
  112800      403.002   -2660.7373            0   -2612.7084    -5.240829 
  113000    413.10381   -2660.2094            0   -2610.9765    1.3984917 
  113200    399.39564   -2657.7201            0    -2610.121  -0.63660586 
  113400    400.81524   -2659.6733            0    -2611.905    1.6753492 
  113600    389.06981   -2660.1639            0   -2613.7954   -2.9790384 
  113800    410.94827   -2659.3012            0   -2610.3253  -0.47234259 
  114000    399.52808   -2658.3847            0   -2610.7698   -2.4916133 
  114200    395.57953   -2659.9668            0   -2612.8225   0.34127733 
  114400    406.22284   -2659.2651            0   -2610.8523   0.50644753 
  114600    410.17133    -2658.543            0   -2609.6597  -0.13126236 
  114800    389.09274   -2659.4826            0   -2613.1113    -4.184125 
  115000    392.95734   -2659.1808            0    -2612.349    2.7087362 
  115200    396.00435   -2656.4383            0   -2609.2434      -5.5092 
  115400    387.48972   -2657.5299            0   -2611.3497    4.8132798 
  115600    395.74102   -2661.6424            0   -2614.4788   -6.2296008 
  115800    417.03297   -2660.3803            0   -2610.6792    1.2686058 
  116000    393.82855   -2658.4345            0   -2611.4988    2.1605228 
  116200    399.34251    -2661.172            0   -2613.5792    4.8315025 
  116400    414.65422   -2660.7037            0   -2611.2861   -5.4511255 
  116600    396.64678   -2659.5351            0   -2612.2636    1.2260543 
  116800    376.80871   -2658.6161            0   -2613.7089    3.7679356 
  117000    402.50913   -2658.5704            0   -2610.6003   0.70208233 
  117200    396.53427   -2659.4673            0   -2612.2092   -1.2693855 
  117400    379.58431   -2661.0892            0   -2615.8512   -1.7314078 
  117600    395.47309     -2661.76            0   -2614.6284   -1.7414309 
  117800    411.96484   -2659.6631            0    -2610.566   0.87296217 
  118000    398.23622   -2661.6282            0   -2614.1673   -2.4582863 
  118200    389.80564   -2662.7894            0   -2616.3332    5.4430854 
  118400    419.14441   -2662.2302            0   -2612.2775   -4.5592079 
  118600    420.89408   -2661.9465            0   -2611.7852   0.39837456 
  118800     401.0722   -2665.4486            0   -2617.6497    3.0327681 
  119000    376.16033   -2662.1731            0   -2617.3431   -3.3379793 
  119200    417.18298   -2661.2667            0   -2611.5477 -0.0018067993 
  119400    400.53092   -2662.0894            0    -2614.355   -1.5028841 
  119600    385.50998    -2664.519            0   -2618.5747    2.6780402 
  119800    404.19513   -2662.9816            0   -2614.8105   0.53280355 
  120000    403.75807   -2660.3201            0   -2612.2011   -5.1046116 
  120200    408.07965   -2665.0909            0   -2616.4569   -3.4723288 
  120400    392.52093   -2664.5097            0   -2617.7299   -1.0806829 
  120600    407.63881   -2661.3779            0   -2612.7963   -4.4493655 
  120800    399.06671   -2662.6424            0   -2615.0825   -3.0737727 
  121000    392.76119   -2665.0449            0   -2618.2365  0.009289349 
  121200    408.74586   -2662.8289            0   -2614.1155   -5.2498009 
  121400    397.76679   -2661.0935            0   -2613.6885   0.94699573 
  121600     389.5067   -2665.0532            0   -2618.6326    1.3376086 
  121800    395.98519   -2663.1894            0   -2615.9968    3.3470121 
  122000    402.73917   -2661.4718            0   -2613.4742   -3.0236395 
  122200    402.67038    -2663.651            0   -2615.6616      2.56288 
  122400    380.11375   -2664.4694            0   -2619.1682   -3.8101429 
  122600    435.56003   -2665.3764            0   -2613.4673  -0.23002838 
  122800    394.76451    -2661.826            0   -2614.7788   -1.2143947 
  123000    402.60151    -2666.131            0   -2618.1498    2.1315092 
  123200    396.85711   -2663.1673            0   -2615.8707   -1.9274654 
  123400    395.60606   -2660.4696            0   -2613.3221  -0.27654114 
  123600    391.25277   -2664.8153            0   -2618.1866   -2.8984191 
  123800    405.08257   -2665.2127            0   -2616.9358   -1.5089582 
  124000    407.20889   -2661.5868            0   -2613.0566    1.1235594 
  124200    396.87756    -2663.118            0   -2615.8189   -4.2032004 
  124400    395.47324   -2664.6498            0   -2617.5181    6.2521656 
  124600    417.88581   -2664.4943            0   -2614.6915   0.66708376 
  124800    402.65426   -2662.6787            0   -2614.6913  -0.92466189 
  125000    394.29191   -2664.5068            0   -2617.5159   -2.8515844 
  125200    406.28721   -2664.1804            0     -2615.76    1.7517569 
  125400    411.33987   -2663.0533            0   -2614.0307    -1.065438 
  125600     404.5088   -2665.1738            0   -2616.9653    3.3265276 
  125800    401.18192   -2664.2774            0   -2616.4654   -7.2194172 
  126000    400.50009   -2661.8285            0   -2614.0977    5.0411388 
  126200    395.14438   -2663.2259            0   -2616.1334   -5.4101158 
  126400    388.06433   -2663.4802            0   -2617.2315    3.5721034 
  126600    407.90802   -2663.1141            0   -2614.5005  -0.76011304 
  126800    394.20673   -2662.4659            0   -2615.4852   0.86760837 
  127000    397.86793   -2664.6343            0   -2617.2172     3.717772 
  127200    393.73189   -2662.2532            0    -2615.329    -1.864076 
  127400     413.3339    -2663.573            0   -2614.3127    2.7544433 
  127600    391.37877   -2665.2904            0   -2618.6467  -0.13607552 
  127800    413.56603   -2664.0201            0   -2614.7322    1.4381046 
  128000    402.53572   -2662.3148            0   -2614.3415    2.8564306 
  128200    383.65455   -2664.2113            0   -2618.4882    6.0417498 
  128400    393.73832   -2662.9297            0   -2616.0048   -2.2183151 
  128600    414.31135   -2661.9322            0   -2612.5555     3.032722 
  128800    389.84411   -2665.9308            0     -2619.47  -0.83774106 
  129000    377.67134   -2662.5373            0   -2617.5273  -0.59425919 
  129200    421.63428   -2661.3569            0   -2611.1074   -5.7680881 
  129400    396.19164   -2664.1778            0   -2616.9606   -2.2920226 
  129600    388.20979   -2665.5617            0   -2619.2957  -0.71332718 
  129800    401.14203   -2660.3249            0   -2612.5176   -6.7702532 
  130000    398.54225   -2660.7226            0   -2613.2252    1.4546168 
  130200     380.4273   -2665.7741            0   -2620.4356   -3.5569875 
  130400    405.19902    -2663.342            0   -2615.0513    2.7465866 
  130600    409.85505   -2661.5534            0   -2612.7078   -4.3289869 
  130800    393.06173   -2665.1078            0   -2618.2636    8.4346175 
  131000    407.29507   -2666.1899            0   -2617.6494   -0.4762923 
  131200    415.64055   -2661.8201            0   -2612.2849    2.3689996 
  131400    390.64583   -2662.3422            0   -2615.7859   -3.5069686 
  131600    393.28428   -2665.4965            0   -2618.6257    3.8847949 
  131800    395.87658   -2662.7733            0   -2615.5935 -0.018059694 
  132000    408.02879   -2663.1216            0   -2614.4936   -4.0112714 
  132200    400.83483   -2664.7066            0    -2616.936    3.8948874 
  132400    407.44958   -2666.6315            0   -2618.0725   -1.8697674 
  132600    413.07018   -2663.0169            0   -2613.7881  -0.44546119 
  132800    387.67465   -2661.4037            0   -2615.2015    1.2696533 
  133000    381.24214    -2663.905            0   -2618.4694    5.0727369 
  133200    398.68482   -2662.8609            0   -2615.3465   -4.2369227 
  133400    428.26394   -2662.9701            0   -2611.9305    4.1081907 
  133600     374.5119   -2663.7123            0   -2619.0788  -0.14572885 
  133800    384.72114   -2664.4114            0   -2618.5612     4.055127 
  134000    409.68549   -2661.0086            0   -2612.1832   -2.1908804 
  134200    398.90802   -2663.6513            0   -2616.1103   -1.3115323 
  134400    394.54797   -2667.1204            0    -2620.099   0.25328006 
  134600    420.81418   -2662.4868            0   -2612.3351   -2.8824411 
  134800    410.32439   -2662.6349            0   -2613.7334  -0.22104683 
  135000    383.38256   -2666.0142            0   -2620.3235    1.2567696 
  135200    400.79076   -2663.5104            0    -2615.745   -1.4213772 
  135400    422.83939   -2661.6266            0   -2611.2335   -4.6354914 
  135600    385.27859   -2663.1826            0   -2617.2659   -2.2088367 
  135800    381.02411   -2665.6399            0   -2620.2303    1.0658582 
  136000    403.82504   -2660.9033            0   -2612.7763   -3.1416063 
  136200    403.96969   -2662.4964            0   -2614.3522   -2.9150955 
  136400    371.14249   -2664.2853            0   -2620.0534    5.1151572 
  136600    405.59118   -2663.7003            0   -2615.3628   -3.4550324 
  136800    404.40686   -2661.4352            0   -2613.2389  -0.35101619 
  137000    377.43139   -2663.0023            0   -2618.0208    1.2258702 
  137200    394.41935   -2665.0584            0   -2618.0524  0.079684525 
  137400    409.49649    -2661.662            0   -2612.8591  -0.10809863 
  137600    409.37322   -2665.1286            0   -2616.3404   -4.7023192 
  137800    388.93371   -2665.6743            0    -2619.322   0.57557972 
  138000    408.03228   -2663.0914            0    -2614.463     -3.49737 
  138200    397.35871   -2661.9714            0    -2614.615   0.75588235 
  138400    394.92907   -2665.2461            0   -2618.1793   0.67691452 
  138600    401.77523   -2663.8619            0   -2615.9792   -2.5708397 
  138800    409.34646   -2662.6627            0   -2613.8777  -0.79079934 
  139000    410.18724   -2664.7435            0   -2615.8582   -1.0766994 
  139200    389.54981   -2664.2533            0   -2617.8276    2.4734152 
  139400    410.68114   -2663.2936            0   -2614.3495   -4.2749131 
  139600    416.35377   -2663.4498            0   -2613.8297    -2.047672 
  139800    402.15304   -2665.8749            0   -2617.9471    3.1251716 
  140000    405.90077   -2664.8487            0   -2616.4743   -6.3689086 
  140200     406.3767   -2662.1162            0   -2613.6851    4.5959171 
  140400    394.12048     -2664.33            0   -2617.3596    -3.896949 
  140600     396.8802   -2664.4244            0   -2617.1251    1.3910132 
  140800    399.62769    -2662.472            0   -2614.8452   -3.2089105 
  141000    412.78041   -2664.2686            0   -2615.0743    -2.869913 
  141200    401.76286   -2665.0308            0   -2617.1495  -0.24270949 
  141400     396.6948     -2662.64            0   -2615.3628  -0.88169517 
  141600    406.72714   -2663.5709            0    -2615.098   -1.1220434 
  141800    399.96101   -2664.0785            0    -2616.412    1.7688227 
  142000    402.18427    -2663.399            0   -2615.4676   -3.2097991 
  142200    403.85494   -2663.4276            0   -2615.2971    1.5983167 
  142400    403.57285   -2664.5855            0   -2616.4886   -3.6053253 
  142600    394.69789   -2662.2973            0    -2615.258     3.346317 
  142800    390.58512   -2662.5279            0   -2615.9788   0.36197489 
  143000     402.9581   -2663.7176            0   -2615.6939    3.0460614 
  143200    400.09003   -2663.0157            0   -2615.3339  -0.41361993 
  143400     414.8618   -2664.8647            0   -2615.4224   0.29061989 
  143600    399.17731   -2663.8084            0   -2616.2353 -0.043754481 
  143800    410.47917   -2664.3541            0   -2615.4341    2.6549707 
  144000    400.99022   -2663.7634            0   -2615.9743    2.5105812 
  144200    393.35622    -2663.672            0   -2616.7926    2.9550079 
  144400    385.91245    -2662.424            0   -2616.4318    4.2613785 
  144600    392.54589   -2662.6666            0   -2615.8838   -2.6294433 
  144800    380.93031   -2661.7371            0   -2616.3386  -0.69265257 
  145000    403.99304   -2664.0597            0   -2615.9127  -0.10118809 
  145200    404.04472   -2664.1594            0   -2616.0062    1.9394816 
  145400    395.87511   -2663.6707            0   -2616.4911    3.9526631 
  145600     396.5491   -2662.4713            0   -2615.2115  -0.59556226 
  145800    399.72506   -2662.2411            0   -2614.6027    2.8891412 
  146000    394.86472   -2664.4636            0   -2617.4044   -2.5955779 
  146200     401.9163   -2664.2328            0   -2616.3333   -2.6624167 
  146400    411.95243   -2662.8854            0   -2613.7897     -2.56385 
  146600    402.67305   -2664.0872            0   -2616.0975    -2.479166 
  146800    382.66516   -2663.2252            0     -2617.62   -2.5153387 
  147000    395.60003   -2661.0955            0   -2613.9488    -2.118804 
  147200    401.01328   -2661.8439            0    -2614.052   -1.9711231 
  147400    384.00651     -2664.66            0    -2618.895   -1.2569405 
  147600    400.07648   -2663.8916            0   -2616.2114   -3.1353077 
  147800    399.27111   -2660.7739            0   -2613.1896   -3.7470231 
  148000    393.51159   -2664.3811            0   -2617.4832   0.11248445 
  148200    395.76803    -2665.372            0   -2618.2052   -3.3215883 
  148400    417.34951   -2662.6707            0   -2612.9319   -1.0737584 
  148600    376.58725   -2661.6446            0   -2616.7637   -1.3515092 
  148800    397.35845    -2665.993            0   -2618.6367    4.5282576 
  149000    401.36975   -2663.3163            0    -2615.482   -5.9519773 
  149200     412.8282    -2662.786            0    -2613.586    7.0939991 
  149400    388.11047   -2664.5922            0   -2618.3381   -1.4153315 
  149600    419.33635    -2665.724            0   -2615.7483    9.0628842 
  149800    386.31891   -2661.2358            0   -2615.1951   -6.5292422 
  150000    407.24069   -2663.9551            0   -2615.4211     2.253695 
  150200     385.4666    -2663.325            0   -2617.3859  0.093298413 
  150400    393.65336   -2662.9907            0   -2616.0759   -2.4928523 
  150600    408.24391   -2662.5066            0    -2613.853    2.1733177 
  150800    402.26492   -2665.3726            0   -2617.4315   -4.9243142 
  151000    380.57159   -2661.9137            0    -2616.558    1.3549199 
  151200    394.92352   -2660.9993            0   -2613.9332   -3.8476376 
  151400    406.12031   -2663.4364            0   -2615.0358    5.6115379 
  151600    377.94053   -2663.6212            0   -2618.5791   -2.1051913 
  151800    403.67139   -2662.9575            0   -2614.8488   0.71414849 
  152000    404.98752   -2663.4247            0   -2615.1592  -0.73023082 
  152200    397.94151   -2664.6737            0   -2617.2479   0.28401297 
  152400    395.00561   -2663.7044            0   -2616.6285   -3.4227355 
  152600    397.67797   -2661.7016            0   -2614.3072     -1.35441 
  152800    399.06574    -2664.213            0   -2616.6532    2.6959112 
  153000    391.06878   -2665.2321            0   -2618.6253   -0.4205047 
  153200    408.03523   -2662.7795            0   -2614.1507    1.7902829 
  153400    401.04966   -2662.7931            0   -2614.9968   -1.7160148 
  153600    389.26121   -2664.7436            0   -2618.3523    2.6359362 
  153800    402.91387   -2664.2626            0   -2616.2442   -2.8286388 
  154000    422.64449   -2663.5915            0   -2613.2216   -1.6244276 
  154200    384.36076   -2662.5834            0   -2616.7761   -1.6706929 
  154400    408.44412   -2665.7873            0   -2617.1098    6.5082355 
  154600    388.81093   -2660.4215            0   -2614.0839   -1.1445227 
  154800     409.6385   -2663.7225            0   -2614.9027    6.6225964 
  155000    385.99172   -2664.6243            0   -2618.6226   -6.4625159 
  155200    417.71922   -2663.2843            0   -2613.5015    5.7627198 
  155400    399.46641   -2662.4454            0   -2614.8378   -3.1909137 
  155600    382.70372   -2663.7372            0   -2618.1274    3.0467558 
  155800    398.52342   -2662.7298            0   -2615.2346   -8.0915929 
  156000    403.35574    -2659.534            0   -2611.4629    1.8214251 
  156200    380.76208   -2664.6096            0   -2619.2312   -4.3460288 
  156400    395.64982   -2664.5418            0   -2617.3891    2.3300324 
  156600    419.25008   -2661.6864            0   -2611.7211   -10.328267 
  156800    406.79416   -2664.8656            0   -2616.3847    6.4807143 
  157000    381.54395   -2665.5483            0   -2620.0767   -5.2784213 
  157200    426.49036   -2662.9169            0   -2612.0887     3.071134 
  157400     391.6057   -2660.2813            0   -2613.6106   -2.3959452 
  157600    388.26253   -2666.4996            0   -2620.2273    1.9152785 
  157800    403.81373   -2664.7359            0   -2616.6102   0.92121977 
  158000    421.86738   -2661.7912            0    -2611.514    4.5646278 
  158200    395.55636   -2664.8559            0   -2617.7144   -2.8553684 
  158400    393.36084   -2666.4669            0    -2619.587    4.1427687 
  158600     397.0746   -2660.5147            0   -2613.1922  -0.36873738 
  158800    406.21908   -2663.2797            0   -2614.8674    4.8340976 
  159000    378.21131   -2665.6151            0   -2620.5407   -1.3496967 
  159200    422.26237   -2664.0799            0   -2613.7556    1.1783062 
  159400    405.46525   -2661.6204            0    -2613.298   -2.4681692 
  159600    376.24246   -2664.0869            0   -2619.2471    3.7696805 
  159800    395.00057   -2664.2681            0   -2617.1928   -5.1648826 
  160000    418.03261    -2661.353            0   -2611.5328   0.50719125 
  160200    375.30865    -2663.077            0   -2618.3485  -0.51587384 
  160400    393.04505   -2666.2599            0   -2619.4176   -1.3104836 
  160600     421.2123   -2662.0215            0   -2611.8223     4.112995 
  160800    405.26056   -2662.6136            0   -2614.3155    2.4396875 
  161000     382.5169   -2666.5077            0   -2620.9202   0.45261816 
  161200    406.60654   -2664.0745            0    -2615.616    3.4353757 
  161400    399.18331   -2659.6002            0   -2612.0263    1.5225637 
  161600    377.77892   -2663.6571            0   -2618.6342    3.2736199 
  161800    398.81359   -2665.8489            0   -2618.3191    2.9310625 
  162000    415.57051   -2662.2567            0   -2612.7299   -2.6318936 
  162200    405.13291    -2663.308            0   -2615.0251   -1.3812949 
  162400    388.85025   -2664.4811            0   -2618.1387    0.3401211 
  162600    393.33821   -2662.2231            0   -2615.3459   -2.3471204 
  162800    398.29446   -2661.6475            0   -2614.1797   -1.6322062 
  163000    380.67143   -2663.5638            0   -2618.1962   -5.5878896 
  163200    392.71465   -2663.9368            0   -2617.1339 -0.074137791 
  163400    411.72172   -2662.8147            0   -2613.7466   -4.7712897 
  163600    402.34704   -2664.0528            0    -2616.102   -3.5579904 
  163800    377.08571   -2662.4978            0   -2617.5576    10.626939 
  164000    385.94563   -2661.8217            0   -2615.8255   -4.3713712 
  164200    416.85715   -2663.1521            0    -2613.472    4.3931733 
  164400    386.82495   -2665.3196            0   -2619.2187   -2.2652433 
  164600    408.68036   -2664.2406            0   -2615.5349    2.4177496 
  164800    416.44442   -2661.6683            0   -2612.0373   -8.2278635 
  165000    394.16244   -2664.9067            0   -2617.9313    5.4370311 
  165200      378.161   -2663.4794            0    -2618.411   -4.7972765 
  165400    424.43459    -2663.499            0   -2612.9158    3.6588396 
  165600    396.76592   -2663.7411            0   -2616.4554    -4.320851 
  165800    399.97146   -2666.4037            0   -2618.7359    2.1104965 
  166000     399.0379    -2662.181            0   -2614.6245   0.94942536 
  166200    414.60727   -2663.0577            0   -2613.6457   0.23800527 
  166400    391.26146   -2665.8626            0   -2619.2329   -3.1047567 
  166600    391.30188   -2662.8636            0   -2616.2291  0.037615226 
  166800    429.19437      -2662.2            0   -2611.0496    3.2903584 
  167000    394.91177   -2665.5667            0   -2618.5019   0.80580287 
  167200    418.59025   -2667.6193            0   -2617.7326    7.8111419 
  167400     420.4302   -2662.2427            0   -2612.1367   -1.9784306 
  167600    393.24691   -2662.5884            0   -2615.7221     3.254094 
  167800    397.57779    -2667.514            0   -2620.1316   -1.7050037 
  168000    395.32971   -2661.0914            0   -2613.9768   -1.7916943 
  168200    414.99281   -2663.2786            0   -2613.8207   -3.4447207 
  168400     393.4596   -2665.3961            0   -2618.5045    4.6702131 
  168600    401.62286   -2663.9076            0   -2616.0431   -5.8885478 
  168800    423.06199   -2663.3467            0   -2612.9271   -2.3125844 
  169000    379.24427   -2663.5898            0   -2618.3923  -0.63189189 
  169200    393.37132   -2663.6992            0   -2616.8181    1.6451457 
  169400    404.61418   -2661.4936            0   -2613.2726   -2.9854841 
  169600    400.54661   -2664.8146            0   -2617.0783   -3.5105236 
  169800    385.52572   -2664.3761            0     -2618.43  -0.49653355 
  170000    398.07107   -2661.8947            0   -2614.4534   -3.1867949 
  170200     416.3485   -2664.4436            0   -2614.8241   -4.2436795 
  170400    398.62175   -2664.4984            0   -2616.9915 -0.0013083412 
  170600    404.36805   -2664.8749            0   -2616.6832    2.8897265 
  170800    413.94699   -2664.3944            0   -2615.0611   -1.0994748 
  171000    393.49996   -2662.7824            0    -2615.886   -1.1864174 
  171200    398.98253   -2664.4853            0   -2616.9354    4.8124093 
  171400    398.50903   -2664.9278            0   -2617.4343    -6.345481 
  171600    390.98476   -2661.8548            0   -2615.2581     1.758099 
  171800    392.25376   -2663.2362            0   -2616.4883   -4.4456297 
  172000     386.7775   -2663.6312            0   -2617.5359    8.1211211 
  172200    378.42388   -2662.9047            0    -2617.805   -4.6012323 
  172400    392.09943   -2662.5656            0    -2615.836    5.1452981 
  172600    372.64383   -2662.4452            0   -2618.0343    -2.595449 
  172800    401.03292   -2663.7699            0   -2615.9756    1.6005749 
  173000    390.37896   -2662.7193            0   -2616.1948   -4.9458966 
  173200     384.9031   -2663.2919            0     -2617.42     1.373844 
  173400    392.15675   -2663.7531            0   -2617.0167   -2.2007685 
  173600    407.54157   -2663.6073            0   -2615.0374   -2.0008758 
  173800    390.41709    -2664.693            0   -2618.1639   -3.2743296 
  174000    406.54363   -2665.9485            0   -2617.4975    2.1992832 
  174200    402.91989   -2663.8591            0     -2615.84   -5.9215473 
  174400    404.07954   -2664.8506            0   -2616.6932   0.26748451 
  174600    399.32831   -2666.7064            0   -2619.1153   -3.3391496 
  174800    400.42754   -2662.8437            0   -2615.1216   -1.5612396 
  175000    395.87526   -2663.4853            0   -2616.3058    1.0235241 
  175200    399.25949   -2667.5421            0   -2619.9592   -1.8382447 
  175400    408.06627   -2664.9009            0   -2616.2685   0.91863773 
  175600    391.28273   -2661.1232            0    -2614.491   -5.6770185 
  175800    391.56716   -2664.7874            0   -2618.1212    1.4121944 
  176000    391.48786   -2665.4482            0   -2618.7916   -1.5657779 
  176200    399.14141   -2662.3679            0   -2614.7991    3.1207725 
  176400    399.14211   -2663.5286            0   -2615.9597   -1.7500714 
  176600    406.69155   -2665.7448            0   -2617.2761    6.6186119 
  176800    388.49927   -2664.1515            0    -2617.851   -3.2501927 
  177000    415.34771     -2665.51            0   -2616.0098  0.043837683 
  177200    407.25667   -2666.0877            0   -2617.5518   -2.3762216 
  177400    400.69345   -2664.6851            0   -2616.9313     1.560316 
  177600    415.05387   -2665.1463            0    -2615.681    -1.776039 
  177800    399.93262   -2665.0677            0   -2617.4046  -0.17130836 
  178000    399.14687   -2665.7729            0   -2618.2034   -1.1535874 
  178200    420.32608   -2664.7941            0   -2614.7005    2.2455325 
  178400     403.1948   -2664.0172            0   -2615.9653   -1.6233456 
  178600    386.27734   -2664.9744            0   -2618.9387  -0.60268091 
  178800    409.80061   -2665.6447            0   -2616.8056   -2.6095033 
  179000    410.04963   -2663.4639            0    -2614.595   0.51843731 
  179200    384.06751   -2664.1692            0   -2618.3969    3.3942105 
  179400    392.04134   -2665.1614            0   -2618.4387   0.58150653 
  179600    411.73819   -2663.3433            0   -2614.2732  -0.44087685 
  179800    396.29259   -2664.0609            0   -2616.8316     3.531278 
  180000    408.42418   -2666.6079            0   -2617.9328   -2.1718863 
  180200     398.3137   -2663.0008            0   -2615.5306    2.2407867 
  180400    401.37111   -2665.4273            0   -2617.5928   -2.1572519 
  180600    410.84624   -2665.9029            0   -2616.9391    2.3814925 
  180800    395.96783   -2662.8842            0   -2615.6936   -4.3498465 
  181000    399.29254   -2665.0497            0   -2617.4629    1.7371799 
  181200    390.28328   -2663.7187            0   -2617.2055   -1.7339313 
  181400    408.61689   -2664.0128            0   -2615.3147    -1.369729 
  181600    404.71701   -2665.1658            0   -2616.9325    -1.207727 
  181800    398.57725   -2667.3988            0   -2619.8973   -2.5560941 
  182000    401.25573   -2663.2106            0   -2615.3898   -4.1507642 
  182200    412.69769   -2664.4751            0   -2615.2907   -2.1948564 
  182400    385.44681   -2666.7031            0   -2620.7664   -6.0684186 
  182600    420.80911    -2665.995            0   -2615.8439  -0.10677958 
  182800    390.10342   -2661.0145            0   -2614.5228   -3.7319798 
  183000    405.06235   -2666.6171            0   -2618.3426    1.8720337 
  183200     376.5638   -2665.1557            0   -2620.2776  -0.66688675 
  183400    409.77468   -2662.7704            0   -2613.9343  -0.29540156 
  183600    405.64349   -2663.7899            0   -2615.4461  -0.48003277 
  183800    391.54555   -2667.3535            0     -2620.69  -0.26285435 
  184000    389.97159   -2663.8529            0   -2617.3769  -0.87837484 
  184200    399.69348   -2660.2313            0   -2612.5967   -1.4942763 
  184400    398.40098   -2666.1903            0   -2618.7098   0.90765285 
  184600    396.26487   -2667.3167            0   -2620.0907    5.6339468 
  184800    412.89139   -2662.3744            0   -2613.1669   -3.9425439 
  185000    401.97833   -2664.2306            0   -2616.3237    3.8501886 
  185200    383.86524   -2666.6517            0   -2620.9034  0.047746351 
  185400     397.5213   -2662.7292            0   -2615.3535    2.5376622 
  185600    407.44067   -2663.7222            0   -2615.1643   -6.5772042 
  185800    405.53389   -2667.6323            0   -2619.3016     2.718675 
  186000     397.6227   -2665.0819            0   -2617.6941   -2.7783141 
  186200    411.59842   -2663.6367            0   -2614.5833   0.57723413 
  186400    394.83887   -2665.0838            0   -2618.0278    5.4354611 
  186600     379.1784   -2664.3971            0   -2619.2075   -1.7526975 
  186800    408.58429   -2663.0894            0   -2614.3952    4.9195339 
  187000    386.39452   -2662.4452            0   -2616.3955   -1.8723088 
  187200    396.71557   -2667.2455            0   -2619.9658    4.8766854 
  187400    391.56502   -2664.3817            0   -2617.7158 -0.072537118 
  187600    419.54134   -2663.4979            0   -2613.4979   0.69608493 
  187800    376.96908   -2663.5629            0   -2618.6365  0.047614096 
  188000    388.03332    -2665.358            0   -2619.1131    2.8237495 
  188200    403.60677   -2663.5374            0   -2615.4364   -1.9033534 
  188400     407.7436   -2664.3357            0   -2615.7417   -2.1655934 
  188600    389.73951   -2664.7132            0   -2618.2649   -0.7259029 
  188800     399.0943   -2663.7355            0   -2616.1723    1.5465133 
  189000    408.62973   -2664.2944            0   -2615.5948    6.1211147 
  189200      399.663    -2665.977            0   -2618.3461   -2.8351137 
  189400    395.66739   -2664.7128            0    -2617.558   0.29196132 
  189600    401.24975   -2663.8405            0   -2616.0204   -3.0918529 
  189800    401.67401   -2665.4777            0    -2617.607   -1.3152972 
  190000    405.24508   -2667.1315            0   -2618.8352   -2.9171262 
  190200    398.87714   -2662.5011            0   -2614.9637     2.352557 
  190400    400.89521    -2665.117            0   -2617.3392    2.9881014 
  190600     389.2115   -2666.9698            0   -2620.5845   -1.1364965 
  190800    400.47285   -2662.6588            0   -2614.9313    3.2316398 
  191000    399.18174   -2663.0876            0    -2615.514   0.21246493 
  191200    387.48445   -2664.8807            0   -2618.7012    3.0847625 
  191400    401.63304   -2664.8773            0   -2617.0115   0.40040411 
  191600     421.7472   -2664.9543            0   -2614.6914   -3.7276678 
  191800    397.16172   -2665.7668            0   -2618.4339  -0.34653983 
  192000    383.17935   -2664.7657            0   -2619.0993     5.956613 
  192200    417.74255   -2664.8141            0   -2615.0284   -1.2489466 
  192400    402.98951   -2664.1688            0   -2616.1414  -0.52746017 
  192600    378.54725   -2665.0748            0   -2619.9603   -2.4634269 
  192800    406.34506   -2665.0422            0   -2616.6149  -0.34740178 
  193000    414.32844   -2663.7715            0   -2614.3928   -6.4841791 
  193200    396.02165   -2665.0322            0   -2617.8352    3.2092683 
  193400    394.50241   -2666.5511            0   -2619.5352  -0.83438591 
  193600    423.92555   -2664.2778            0   -2613.7553    6.1682731 
  193800    384.88386    -2664.186            0   -2618.3164   -5.3053208 
  194000    386.04933   -2665.7519            0   -2619.7433     6.153103 
  194200    400.77377   -2663.0502            0   -2615.2868   -1.7484703 
  194400    385.55676   -2660.8031            0   -2614.8533    2.6804307 
  194600    397.12615   -2667.2947            0   -2619.9661   -5.9656689 
  194800    406.98155   -2666.7007            0   -2618.1975    0.3736732 
  195000    426.88029   -2664.8679            0   -2613.9932   -6.1608367 
  195200    386.32468   -2663.8968            0   -2617.8554    2.2212023 
  195400    393.97831   -2665.9719            0   -2619.0185   -4.2028911 
  195600    397.36034   -2662.8868            0   -2615.5303  -0.68488759 
  195800    397.85059   -2664.1932            0   -2616.7782   -1.3424858 
  196000    377.07402   -2664.0155            0   -2619.0766    1.9413222 
  196200    407.79577   -2663.8449            0   -2615.2447   -2.6911324 
  196400     403.4299   -2662.4467            0   -2614.3668    1.3471821 
  196600     386.2502   -2666.1742            0   -2620.1418   0.17582487 
  196800    400.12329    -2664.419            0   -2616.7331   -1.9791663 
  197000    404.97071   -2659.8942            0   -2611.6307    3.7288386 
  197200     384.0473   -2665.8101            0   -2620.0402  -0.31700155 
  197400    378.63823    -2665.777            0   -2620.6517  -0.98004097 
  197600    418.88442   -2661.2794            0   -2611.3577    1.5551335 
  197800     404.0625   -2664.4627            0   -2616.3074    3.2593561 
  198000    383.56988   -2666.9089            0   -2621.1959    4.1724282 
  198200    398.77314   -2663.5921            0   -2616.0672    -5.956044 
  198400    401.77751   -2662.1955            0   -2614.3125  -0.25628289 
  198600    406.79756   -2667.0696            0   -2618.5884    1.5990594 
  198800    394.40435    -2665.459            0   -2618.4547   -5.3654783 
  199000    427.02775   -2666.6148            0   -2615.7226    3.0016215 
  199200    391.22791   -2664.6058            0   -2617.9801  -0.93056766 
  199400    394.25179   -2663.5611            0    -2616.575     5.283356 
  199600    404.54605   -2664.4096            0   -2616.1967   -1.7656825 
  199800    397.64176   -2664.7509            0   -2617.3608    6.5318876 
  200000     392.6414   -2664.9019            0   -2618.1078 -0.0031297323 
  200200    398.10595   -2663.6016            0   -2616.1562   -1.9351443 
  200400     403.1912    -2665.113            0   -2617.0615  -0.20463546 
  200600    392.24972   -2664.4955            0    -2617.748   -1.3502062 
  200800     407.4654   -2664.3408            0   -2615.7799   0.86242743 
  201000    407.47879   -2665.9108            0   -2617.3483   -4.5526494 
  201200    392.57313   -2665.1193            0   -2618.3333    1.0757486 
  201400    396.69104   -2663.1885            0   -2615.9118   -2.0187694 
  201600    388.70562   -2663.1499            0   -2616.8248    -1.139638 
  201800    387.84336   -2663.6068            0   -2617.3845   -1.7630348 
  202000    387.03528   -2662.2794            0   -2616.1534    2.7612253 
  202200    399.45726   -2665.3826            0   -2617.7761    -3.576247 
  202400    385.93569     -2664.16            0   -2618.1651    4.2026269 
  202600    405.68986   -2663.3409            0   -2614.9916    2.5664819 
  202800    402.24448   -2665.1178            0   -2617.1792    3.3756447 
  203000    396.74051   -2666.5062            0   -2619.2236    5.4815731 
  203200    412.28061   -2665.4147            0   -2616.2799    1.3747404 
  203400    401.18043   -2663.9114            0   -2616.0996    1.2661327 
  203600    390.11741   -2664.9882            0   -2618.4948    1.9930182 
  203800    415.91814    -2666.044            0   -2616.4758   -1.6759487 
  204000     389.4574   -2662.9008            0   -2616.4861   0.81528027 
  204200    389.17557   -2664.7386            0   -2618.3575   -4.0139634 
  204400     402.2171   -2664.3273            0   -2616.3919  -0.83809256 
  204600    405.85024   -2663.7329            0   -2615.3645  -0.34200429 
  204800    392.79279   -2665.6095            0   -2618.7973   0.85635251 
  205000    387.85819   -2664.5502            0   -2618.3261    2.5893616 
  205200    402.49619   -2663.5708            0   -2615.6022   -7.2122609 
  205400    406.44415    -2665.204            0   -2616.7648    -1.281226 
  205600     391.4218   -2666.0728            0   -2619.4239     1.652728 
  205800    397.45499   -2662.9658            0    -2615.598    1.0066788 
  206000    408.90704   -2665.3981            0   -2616.6654   -2.2101732 
  206200    404.24805   -2667.3496            0   -2619.1721   -2.4267533 
  206400    402.88026   -2664.6351            0   -2616.6207   -2.1468015 
  206600    397.93956   -2663.5045            0   -2616.0789   0.84605355 
  206800    384.43568   -2664.7735            0   -2618.9572  -0.55814776 
  207000    399.61818    -2664.659            0   -2617.0333    1.7981393 
  207200    404.05851   -2662.8858            0   -2614.7309    3.5832167 
  207400    392.18941   -2665.6594            0   -2618.9191    4.3978824 
  207600    397.85096   -2664.2903            0   -2616.8753   -4.8096599 
  207800    415.73749    -2664.444            0   -2614.8973    3.8100331 
  208000    384.46598   -2665.0112            0   -2619.1914   -3.0271709 
  208200     387.6505   -2665.0217            0   -2618.8223    5.5129632 
  208400    420.65871   -2665.4682            0    -2615.335   -8.5920821 
  208600    420.28975    -2664.652            0   -2614.5627    4.2725459 
[...]
  450000     405.2142   -2666.8211            0   -2618.5285    6.4334903 
  450200    395.61965    -2665.684            0   -2618.5349   -3.8810959 
  450400    412.17264   -2664.8238            0   -2615.7019    5.9592734 
  450600    392.67314   -2664.5257            0   -2617.7278   -2.4898885 
  450800    407.02378   -2668.0301            0   -2619.5219    6.0103425 
  451000    390.97156   -2664.9086            0   -2618.3135   -7.5674102 
  451200    410.74681   -2664.2591            0   -2615.3072    3.1370038 
  451400    379.74175   -2665.8516            0   -2620.5948   -8.3163802 
  451600    396.13093   -2665.7594            0   -2618.5494    7.8100981 
  451800    406.25473   -2664.2789            0   -2615.8624   -7.6681205 
  452000    401.49173   -2666.4563            0   -2618.6074    1.9630899 
  452200    376.77162   -2666.1377            0   -2621.2349   -4.8361138 
  452400     379.8686   -2661.3317            0   -2616.0598    4.8266067 
  452600    395.27212   -2664.3275            0   -2617.2198   -1.6431949 
  452800     379.4346   -2664.9945            0   -2619.7743    5.2304964 
  453000    404.08005   -2665.8512            0   -2617.6938   -1.7805569 
  453200    410.57226   -2663.9406            0   -2615.0095    4.9106154 
  453400    392.91436   -2667.2236            0   -2620.3969   -6.2091064 
  453600    405.92602   -2667.2322            0   -2618.8548    5.3620305 
  453800    402.80985   -2663.5746            0   -2615.5686    -6.871402 
  454000    410.61733   -2667.2221            0   -2618.2856    2.3316822 
  454200    399.35511   -2667.7847            0   -2620.1904   -1.2837329 
  454400    410.02787   -2664.8165            0   -2615.9503    6.4501469 
  454600    388.66025   -2664.7349            0   -2618.4152   -3.6072382 
  454800    392.94167   -2666.2202            0   -2619.3902    8.7323768 
  455000    394.96849   -2664.0981            0   -2617.0266   -3.5293353 
  455200    401.77357   -2664.4196            0    -2616.537    4.1295864 
  455400    391.80775   -2667.2421            0   -2620.5473   0.59109753 
  455600    414.85202    -2667.375            0   -2617.9338     3.607767 
  455800    407.37522   -2665.9021            0    -2617.352   -4.2878117 
  456000    395.07225   -2665.1669            0    -2618.083    6.4878003 
  456200    406.64176   -2666.5641            0   -2618.1014   -2.2137183 
  456400    394.64763    -2665.397            0   -2618.3637    5.9477086 
  456600    395.61738   -2665.3528            0   -2618.2039   -1.9262257 
  456800    426.53261   -2667.0746            0   -2616.2413    1.0890116 
  457000    406.55213    -2667.128            0   -2618.6759   -1.8598634 
  457200    393.33705   -2665.9664            0   -2619.0893      7.34636 
  457400    406.93925   -2665.5315            0   -2617.0334    1.7333575 
  457600    413.69939   -2665.5213            0   -2616.2175  -0.58604022 
  457800     395.3309   -2666.2652            0   -2619.1505  -0.30321009 
  458000    397.47396   -2666.5069            0   -2619.1368    1.5321332 
  458200    411.85577   -2664.0876            0   -2615.0035    2.5901106 
  458400    398.74401   -2666.1297            0   -2618.6083    -3.722019 
  458600    392.34991   -2668.2101            0   -2621.4507    5.5694305 
  458800    399.85399   -2664.1297            0   -2616.4759   -2.9158766 
  459000    402.90152   -2663.1797            0   -2615.1628     5.264479 
  459200    384.25189   -2667.8277            0   -2622.0334   -5.4676457 
  459400    404.02342   -2666.8091            0   -2618.6585   -2.3593865 
  459600     413.7257   -2663.6887            0   -2614.3817   -6.2916048 
  459800    388.02515   -2666.0133            0   -2619.7693    2.2668831 
  460000    382.26185   -2667.5116            0   -2621.9544   -2.7358892 
  460200    418.49663   -2663.7721            0   -2613.8965    1.1358679 
  460400    401.87672   -2664.9891            0   -2617.0943   -5.8541391 
  460600    394.75228   -2668.5762            0   -2621.5305    6.2618253 
  460800    406.59065   -2666.0347            0   -2617.5781   -4.9298513 
  461000    421.44623   -2665.3692            0   -2615.1421    2.4378583 
  461200    374.58331   -2664.5015            0   -2619.8595    3.8441427 
  461400     399.6399   -2665.2593            0   -2617.6311    3.2187789 
  461600    417.67395   -2665.2216            0   -2615.4442   0.13376741 
  461800    391.47675   -2665.9019            0   -2619.2465   -6.5907018 
  462000    403.53714   -2666.1969            0   -2618.1042   -1.9687005 
  462200    406.95032   -2665.6734            0   -2617.1739   -4.8353558 
  462400    403.28524   -2666.3993            0   -2618.3366    5.8773045 
  462600    393.06135   -2666.3229            0   -2619.4787   -4.5792596 
  462800    408.91823   -2665.6743            0   -2616.9403    10.237672 
  463000    393.13189   -2664.0008            0   -2617.1482   -6.0082901 
  463200     410.5796   -2667.6417            0   -2618.7097     9.232025 
  463400    390.41927   -2665.6849            0   -2619.1555   -8.9140475 
  463600    402.51848   -2662.6519            0   -2614.6807    9.0613935 
  463800     402.6309   -2667.1542            0   -2619.1695   -10.633776 
  464000    388.16019   -2665.9597            0   -2619.6996    12.241497 
  464200    389.08298   -2664.0955            0   -2617.7254   -13.057676 
  464400     401.7124   -2664.0052            0     -2616.13    12.978281 
  464600    389.08075   -2666.8679            0   -2620.4981   -8.8022916 
  464800    407.68624   -2664.8512            0    -2616.264    9.9630831 
  465000    390.22065   -2664.6442            0   -2618.1385   -10.055324 
  465200    391.67553   -2666.3675            0   -2619.6884    4.0600826 
  465400    393.43006   -2665.1258            0   -2618.2376   -11.219239 
  465600    397.99781   -2664.8904            0   -2617.4578    9.0418106 
  465800    385.30087   -2666.0854            0   -2620.1661   -2.6504216 
  466000    406.44368   -2665.3949            0   -2616.9558    6.7487587 
  466200    410.29446   -2665.5625            0   -2616.6645   -5.4223729 
  466400    388.99116    -2665.515            0   -2619.1559    7.5500668 
  466600    379.81983   -2665.8226            0   -2620.5564   -4.4726974 
  466800    419.48803   -2665.0166            0   -2615.0229    8.4141752 
  467000    395.37302   -2665.6708            0   -2618.5511   -4.5285295 
  467200    398.64022    -2667.595            0    -2620.086    2.4985864 
  467400    398.91918    -2664.844            0   -2617.3017   -3.6601702 
  467600    423.46034   -2666.8598            0   -2616.3927    4.6922339 
  467800    374.05601   -2665.2442            0    -2620.665  -0.55705047 
  468000    394.21046   -2665.3488            0   -2618.3677   -1.1066951 
  468200    387.04063   -2662.0169            0   -2615.8902 -0.029816897 
  468400    395.34077   -2665.9815            0   -2618.8656     1.537886 
  468600    390.27759   -2666.3437            0   -2619.8312   0.66417535 
  468800    414.18184   -2665.8258            0   -2616.4645   -4.2109514 
  469000    412.88314     -2665.39            0   -2616.1835    2.0681475 
  469200    379.63498   -2665.4131            0    -2620.169    3.2117641 
  469400    395.51837   -2664.5995            0   -2617.4624  -0.70147575 
  469600    392.42155    -2664.227            0    -2617.459    2.6725214 
  469800    405.36893   -2667.0079            0   -2618.6969   0.58601862 
  470000    400.21287   -2666.5522            0   -2618.8557   0.95964308 
  470200    402.93459   -2666.1784            0   -2618.1576  -0.74219716 
  470400    418.23442   -2666.3855            0   -2616.5412    -4.812553 
  470600    387.73127    -2665.474            0   -2619.2651    3.5976263 
  470800    401.35758   -2666.6524            0   -2618.8195   -3.3105417 
  471000    403.27886   -2664.8537            0   -2616.7918    3.6928788 
  471200     399.8154   -2666.4374            0   -2618.7882   -4.3219018 
  471400    411.82068   -2667.6443            0   -2618.5644   -0.5623785 
  471600    387.45716   -2663.6177            0   -2617.4414   -3.1087599 
  471800    416.64512   -2666.7511            0   -2617.0963    3.6208739 
  472000    402.12645   -2666.9823            0   -2619.0577   -5.2427895 
  472200    407.92039   -2665.9268            0   -2617.3117    7.6760693 
  472400    403.46628   -2665.9918            0   -2617.9076    -3.734799 
  472600    399.00173   -2665.4894            0   -2617.9373    3.2022632 
  472800    384.06021   -2666.2193            0   -2620.4478   -3.8295643 
  473000    401.83645   -2663.9588            0   -2616.0688    5.5762683 
  473200    385.13701   -2664.1849            0   -2618.2851   -3.2002749 
  473400    400.57489   -2668.6266            0   -2620.8869    4.6238923 
  473600    397.69726   -2664.3366            0   -2616.9399    -5.433335 
  473800    414.63088   -2663.9099            0   -2614.4951  -0.46876878 
  474000    389.69928   -2667.6435            0      -2621.2   -4.1275814 
  474200    404.69451   -2667.3705            0   -2619.1399    2.1177639 
  474400    405.49563   -2662.7825            0   -2614.4564   -4.1198982 
  474600    396.24565   -2666.2444            0   -2619.0207    2.7918539 
  474800    385.10914   -2667.5854            0    -2621.689   -3.6075483 
  475000    416.23119   -2665.0703            0   -2615.4647   -2.0855422 
  475200    398.05478   -2663.5544            0    -2616.115  -0.65572832 
  475400    387.07153   -2667.8856            0   -2621.7553    6.7329607 
  475600    392.59787   -2666.0723            0   -2619.2833   -3.9032253 
  475800    416.03045   -2663.7095            0   -2614.1278    3.4777598 
  476000    396.90283     -2667.62            0    -2620.318   -0.6482402 
  476200     393.0444   -2667.9777            0   -2621.1355    2.1541486 
  476400    390.83976   -2661.9304            0    -2615.351   -2.8740304 
  476600    415.88837   -2664.5152            0   -2614.9505    0.9898747 
  476800     377.7411   -2667.2597            0   -2622.2414   -2.1150541 
  477000    404.95096   -2667.2949            0   -2619.0337   -3.8896491 
  477200    410.90647    -2663.546            0    -2614.575   -0.8197576 
  477400    403.69914   -2667.2772            0   -2619.1652   -2.4642243 
  477600    394.12166   -2668.2677            0   -2621.2971   0.97298708 
  477800    410.52593   -2664.9619            0   -2616.0363   0.54738597 
  478000     408.8321   -2665.2003            0   -2616.4766    1.9194214 
  478200    381.28744   -2667.5728            0   -2622.1318     3.009813 
  478400    387.32855   -2663.6747            0   -2617.5137     9.268636 
  478600    407.21653   -2664.3793            0   -2615.8481   -4.2940383 
  478800    386.08266   -2666.3298            0   -2620.3173    5.8686122 
  479000    388.79727    -2666.405            0   -2620.0689  -0.46403259 
  479200    422.58897   -2664.9437            0   -2614.5805   0.55263413 
  479400    408.21059   -2667.7977            0    -2619.148   -8.7145346 
  479600    377.50062   -2666.3503            0   -2621.3606    6.7055186 
  479800    417.50556   -2666.1323            0   -2616.3749   -9.4278491 
  480000    419.47018   -2666.3888            0   -2616.3973    4.1852817 
  480200    383.21647   -2667.1859            0    -2621.515   -3.2816813 
  480400    401.68756   -2665.4916            0   -2617.6193    2.2320556 
  480600    403.57724   -2663.9915            0   -2615.8941   -7.4963293 
  480800     392.8451    -2666.165            0   -2619.3465    5.7288361 
  481000    391.72916   -2667.0358            0   -2620.3503   -2.0190632 
  481200    413.27269   -2664.4612            0   -2615.2082    -1.600605 
  481400    398.96319   -2666.3447            0   -2618.7972   0.77906295 
  481600    393.98776    -2668.065            0   -2621.1104    0.1652828 
  481800    422.91002   -2665.4872            0   -2615.0857   0.47250149 
  482000     399.6886   -2664.1958            0   -2616.5618     -2.82269 
  482200    395.88719   -2668.3772            0   -2621.1962  -0.27658867 
  482400    392.27786   -2666.5485            0   -2619.7977  -0.84397915 
  482600    405.06601   -2662.1591            0   -2613.8842    2.6352942 
  482800    389.09143   -2664.8668            0   -2618.4957   -1.8428184 
  483000    389.05218   -2668.0437            0   -2621.6773    2.1230881 
  483200    400.60455   -2664.4288            0   -2616.6856   -3.0186881 
  483400     423.7343   -2666.1369            0   -2615.6371   0.53384072 
  483600    376.63743    -2666.623            0   -2621.7362   -1.0657088 
  483800    395.63009   -2665.8628            0   -2618.7124    2.6290347 
  484000      402.063   -2662.6585            0   -2614.7415   -2.4651226 
  484200    383.67048   -2665.5096            0   -2619.7846    3.8813901 
  484400    385.27121   -2667.4807            0   -2621.5649    1.0286924 
  484600     414.1311   -2664.0601            0   -2614.7049 -0.085470052 
  484800    416.43968   -2666.9493            0   -2617.3189  -0.10967015 
  485000    381.56904   -2667.2164            0   -2621.7418    1.9698291 
  485200    390.58681   -2664.4008            0   -2617.8516   -1.5489765 
  485400    412.62829   -2664.0624            0   -2614.8862   -1.6168547 
  485600    392.97435   -2668.0532            0   -2621.2194    -2.056841 
  485800    382.73534   -2665.7919            0   -2620.1783    3.2529988 
  486000     409.5257   -2664.4824            0    -2615.676  -0.58298691 
  486200     406.0731   -2665.9103            0   -2617.5154   -2.9907869 
  486400    390.74331   -2667.0267            0   -2620.4588    3.9265741 
  486600    404.72256   -2666.5656            0   -2618.3316    3.8242919 
  486800    420.11194   -2666.1291            0   -2616.0611    2.5589999 
  487000    387.08457   -2665.7918            0   -2619.6599    2.1342642 
  487200    395.86649   -2666.6534            0   -2619.4749    2.1035866 
  487400    406.39774    -2664.796            0   -2616.3624    3.8335466 
  487600    398.20468   -2665.9452            0    -2618.488    2.0996205 
  487800     392.6922   -2666.3485            0   -2619.5483   -1.8479019 
  488000    404.44246   -2664.6211            0   -2616.4205    2.2204233 
  488200    392.61434   -2665.0347            0   -2618.2438   -2.2922602 
  488400    389.66196   -2664.9863            0   -2618.5472    0.1693538 
  488600    408.12549   -2666.2284            0   -2617.5889    0.4062224 
  488800    382.31977   -2665.1833            0   -2619.6193  -0.16346196 
  489000    395.48742   -2664.6882            0   -2617.5549    -4.082394 
  489200    406.00805   -2665.0927            0   -2616.7056    2.3893485 
  489400    395.27011   -2667.3467            0   -2620.2392   -3.4758573 
  489600    394.17878   -2665.8345            0   -2618.8571    4.7837779 
  489800    412.39924    -2665.033            0   -2615.8842   -3.9245769 
  490000    393.91572   -2666.7127            0   -2619.7666    8.9197351 
  490200    402.60564   -2667.4439            0   -2619.4622   -2.5151277 
  490400    399.99573   -2663.2846            0    -2615.614    1.0513356 
  490600     407.9017   -2667.2181            0   -2618.6052   -2.9491547 
  490800    385.45058   -2666.4461            0    -2620.509  0.099007053 
  491000    405.85176   -2664.4052            0   -2616.0366    1.6857699 
  491200     413.6739   -2665.6214            0   -2616.3206   -2.8756831 
  491400    391.18443   -2668.0041            0   -2621.3836    1.3221502 
  491600    407.28855   -2666.3434            0   -2617.8036  -0.64865237 
  491800    404.08453   -2662.9772            0   -2614.8193    1.4429255 
  492000    391.88238   -2667.7099            0   -2621.0062   -1.8684155 
  492200    397.73557   -2667.9402            0   -2620.5389   -1.5382332 
  492400    419.30038   -2663.3907            0   -2613.4193    1.2342698 
  492600    394.02397   -2665.5417            0   -2618.5828    1.0035628 
  492800    377.15173   -2667.3893            0   -2622.4412   -2.4488301 
  493000     409.6845   -2664.1563            0    -2615.331    3.0140802 
  493200    404.39167   -2664.2143            0   -2616.0198  -0.37336961 
  493400     393.9189   -2668.6385            0   -2621.6921    1.4644339 
  493600    400.31957   -2666.4863            0   -2618.7771   -0.7732202 
  493800     411.1871   -2664.0521            0   -2615.0477      4.55427 
  494000    397.43839   -2667.1842            0   -2619.8184  -0.91228187 
  494200    393.89088   -2667.3265            0   -2620.3834    2.8549449 
  494400     403.6884   -2664.1964            0   -2616.0856   -3.5937563 
  494600    410.60794   -2665.5111            0   -2616.5757    3.0775928 
  494800     378.6477   -2668.5331            0   -2623.4067   -3.1226913 
  495000     409.1662   -2665.8107            0   -2617.0472    2.7166525 
  495200    428.41707   -2664.9014            0   -2613.8436   -7.2952455 
  495400    383.84577   -2668.2335            0   -2622.4876    2.0445361 
  495600    386.79233   -2667.0983            0   -2621.0012   -4.8943974 
  495800    414.45852   -2661.2623            0    -2611.868    2.9038799 
  496000     395.0968   -2667.1883            0   -2620.1015   -4.4094179 
  496200    370.68237   -2667.9725            0   -2623.7954    1.4306106 
  496400    434.52257   -2665.5714            0   -2613.7859  0.055740358 
  496600    388.25923      -2662.9            0   -2616.6281   -0.6287585 
  496800    379.17161   -2667.7478            0    -2622.559  -0.50926345 
  497000    403.81498   -2665.7196            0   -2617.5938   -4.4644066 
  497200    417.83318   -2662.7869            0   -2612.9904    1.7618283 
  497400    379.43114   -2666.4497            0   -2621.2299    1.3046998 
  497600    393.42407   -2667.8023            0   -2620.9149    2.7527507 
  497800    418.02476   -2663.1416            0   -2613.3223   -0.6429305 
  498000    402.22723   -2666.2413            0   -2618.3047    3.9937252 
  498200    388.53146   -2667.7073            0   -2621.4029    0.8228508 
  498400    412.83891   -2663.8966            0   -2614.6954   -3.5857354 
  498600    417.04243   -2665.8417            0   -2616.1395    3.3275305 
  498800    371.46563   -2666.4849            0   -2622.2144   0.18789843 
  499000    408.63612   -2664.5918            0   -2615.8914    2.7479154 
  499200    414.94315   -2665.2259            0   -2615.7738   -8.0314129 
  499400     381.7991   -2667.7331            0   -2622.2311  -0.27851278 
  499600    389.93038   -2665.0734            0   -2618.6023  0.043007572 
  499800    415.99331    -2664.015            0   -2614.4378   -1.9567303 
  500000    391.49328   -2667.2389            0   -2620.5815   -1.4352697 
Loop time of 1235.56 on 1 procs for 500000 steps with 923 atoms

Performance: 69.928 ns/day, 0.343 hours/ns, 404.674 timesteps/s
99.7% CPU use with 1 MPI tasks x 1 OpenMP threads

MPI task timing breakdown:
Section |  min time  |  avg time  |  max time  |%varavg| %total
---------------------------------------------------------------
Pair    | 1204.2     | 1204.2     | 1204.2     |   0.0 | 97.46
Neigh   | 6.2799     | 6.2799     | 6.2799     |   0.0 |  0.51
Comm    | 0.18991    | 0.18991    | 0.18991    |   0.0 |  0.02
Output  | 5.6804     | 5.6804     | 5.6804     |   0.0 |  0.46
Modify  | 16.757     | 16.757     | 16.757     |   0.0 |  1.36
Other   |            | 2.415      |            |       |  0.20

Nlocal:        923.000 ave         923 max         923 min
Histogram: 1 0 0 0 0 0 0 0 0 0
Nghost:        0.00000 ave           0 max           0 min
Histogram: 1 0 0 0 0 0 0 0 0 0
Neighs:        55445.0 ave       55445 max       55445 min
Histogram: 1 0 0 0 0 0 0 0 0 0

Total # of neighbors = 55445
Ave neighs/atom = 60.070423
Neighbor list builds = 3636
Dangerous builds = 0

print "All done!"
All done!
Total wall time: 0:20:35
