LAMMPS (20 Apr 2018)
OMP_NUM_THREADS environment is not set. Defaulting to 1 thread. (../comm.cpp:90)
  using 1 OpenMP thread(s) per MPI task
# Initialization

units		  metal
dimension 	      3
boundary	  f f f
atom_style	 atomic


# Atom Definition

read_data atom_definition.txt
  orthogonal box = (-0 -0 -0) to (100 100 100)
  1 by 1 by 1 MPI processor grid
  reading atoms ...
  561 atoms


# Settings

pair_style meam/c
pair_coeff	* * library.meam Ni NULL Ni
Reading potential file library.meam with DATE: 2012-06-29

velocity         all create 1200.0 12345 mom yes rot yes dist gaussian
timestep         0.003
fix              1 all nve
fix              2 all recenter INIT INIT INIT


dump myDump all custom 200 trajectory.txt id type x y z
dump_modify myDump sort id

thermo_style custom step temp ke pe etotal
thermo 200


# Run a simulation

run              10000
Neighbor list info ...
  update every 1 steps, delay 10 steps, check yes
  max neighbors/atom: 2000, page size: 100000
  master list distance cutoff = 6
  ghost atom cutoff = 6
  binsize = 3, bins = 34 34 34
  2 neighbor lists, perpetual/occasional/extra = 2 0 0
  (1) pair meam/c, perpetual
      attributes: full, newton on
      pair build: full/bin/atomonly
      stencil: full/bin/3d
      bin: standard
  (2) pair meam/c, perpetual, half/full from (1)
      attributes: half, newton on
      pair build: halffull/newton
      stencil: none
      bin: none
Per MPI rank memory allocation (min/avg/max) = 9.723 | 9.723 | 9.723 Mbytes
Step Temp KinEng PotEng TotEng 
       0         1200    86.862817   -2052.8933   -1966.0305 
     200    1691.5217    122.44195   -2088.4561   -1966.0142 
     400    2068.1066    149.70131   -2115.6845   -1965.9832 
     600    1984.0731    143.61848   -2109.4247   -1965.8062 
     800    1841.2454     133.2798   -2098.6023   -1965.3225 
    1000    1881.6951    136.20778   -2101.5417    -1965.334 
    1200    1855.4731    134.30969   -2099.3438   -1965.0341 
    1400    1688.2644    122.20617   -2087.0742   -1964.8681 
    1600    1600.5448    115.85653   -2080.6978   -1964.8413 
    1800    1651.6961    119.55915    -2084.275   -1964.7158 
    2000    1684.4629      121.931    -2086.493    -1964.562 
    2200    1612.9122    116.75175   -2081.2048   -1964.4531 
    2400    1716.7853    124.27068     -2088.57   -1964.2993 
    2600    1725.1063      124.873   -2088.8349   -1963.9619 
    2800    1747.6431    126.50434   -2090.7191   -1964.2147 
    3000    1720.0488    124.50691   -2088.2514   -1963.7445 
    3200     1694.186    122.63481   -2086.3961   -1963.7613 
    3400    1665.4634     120.5557   -2084.0481   -1963.4924 
    3600    1685.4531    122.00267   -2085.7244   -1963.7218 
    3800    1665.7867     120.5791   -2084.0838   -1963.5047 
    4000    1670.1477    120.89478   -2084.2715   -1963.3767 
    4200     1712.163    123.93608   -2086.7576   -1962.8215 
    4400    1630.1304     117.9981   -2080.3545   -1962.3564 
    4600    1557.6403    112.75085   -2074.9149   -1962.1641 
    4800    1563.0653    113.14354   -2075.1101   -1961.9665 
    5000    1642.6283    118.90277   -2080.8948    -1961.992 
    5200    1637.5619    118.53603   -2080.3293   -1961.7933 
    5400      1627.21     117.7867   -2079.4721   -1961.6854 
    5600    1654.2195     119.7418   -2081.5185   -1961.7767 
    5800     1559.517     112.8867   -2074.5496   -1961.6629 
    6000    1593.6978     115.3609   -2076.8071   -1961.4462 
    6200    1567.9228    113.49516    -2075.082   -1961.5869 
    6400    1542.5478    111.65837   -2073.0001   -1961.3418 
    6600    1646.5981    119.19012   -2080.2988   -1961.1086 
    6800    1672.2245    121.04511   -2082.0314   -1960.9863 
    7000    1649.7201    119.41611   -2080.0736   -1960.6575 
    7200      1659.91    120.15372   -2080.6854   -1960.5317 
    7400    1626.8634    117.76162    -2077.836   -1960.0744 
    7600    1614.8056     116.8888   -2077.1282   -1960.2394 
    7800    1598.7086    115.72361   -2075.7156    -1959.992 
    8000    1654.9541    119.79498    -2079.614    -1959.819 
    8200    1544.4019    111.79258   -2071.4908   -1959.6983 
    8400    1655.3339    119.82247   -2079.4409   -1959.6185 
    8600    1604.2367    116.12377   -2075.2895   -1959.1658 
    8800    1582.4493    114.54667   -2073.2254   -1958.6787 
    9000    1701.7269    123.18066   -2081.7407     -1958.56 
    9200    1538.3462    111.35423   -2069.7985   -1958.4443 
    9400    1617.3434    117.07251   -2075.1624   -1958.0899 
    9600    1619.4528     117.2252   -2075.0212    -1957.796 
    9800    1647.0729    119.22449   -2076.9631   -1957.7386 
   10000     1644.787    119.05903   -2076.7269   -1957.6679 
Loop time of 29.7104 on 1 procs for 10000 steps with 561 atoms

Performance: 87.242 ns/day, 0.275 hours/ns, 336.582 timesteps/s
98.3% CPU use with 1 MPI tasks x 1 OpenMP threads

MPI task timing breakdown:
Section |  min time  |  avg time  |  max time  |%varavg| %total
---------------------------------------------------------------
Pair    | 28.934     | 28.934     | 28.934     |   0.0 | 97.39
Neigh   | 0.43876    | 0.43876    | 0.43876    |   0.0 |  1.48
Comm    | 0.0040309  | 0.0040309  | 0.0040309  |   0.0 |  0.01
Output  | 0.17073    | 0.17073    | 0.17073    |   0.0 |  0.57
Modify  | 0.13654    | 0.13654    | 0.13654    |   0.0 |  0.46
Other   |            | 0.02657    |            |       |  0.09

Nlocal:    561 ave 561 max 561 min
Histogram: 1 0 0 0 0 0 0 0 0 0
Nghost:    0 ave 0 max 0 min
Histogram: 1 0 0 0 0 0 0 0 0 0
Neighs:    14486 ave 14486 max 14486 min
Histogram: 1 0 0 0 0 0 0 0 0 0
FullNghs:  28972 ave 28972 max 28972 min
Histogram: 1 0 0 0 0 0 0 0 0 0

Total # of neighbors = 28972
Ave neighs/atom = 51.6435
Neighbor list builds = 410
Dangerous builds = 0

print "All done!"
All done!
Total wall time: 0:00:29
