ITEM: TIMESTEP
0
ITEM: NUMBER OF ATOMS
561
ITEM: BOX BOUNDS ff ff ff
-0.0000000000000000e+000 1.0000000000000000e+002
-0.0000000000000000e+000 1.0000000000000000e+002
-0.0000000000000000e+000 1.0000000000000000e+002
ITEM: ATOMS id type x y z 
1 1 50 50 50 
2 1 48.0777 48.0777 50 
3 1 48.0777 50 48.0777 
4 1 48.0777 50 51.9223 
5 1 48.0777 51.9223 50 
6 1 50 48.0777 48.0777 
7 1 50 48.0777 51.9223 
8 1 50 51.9223 48.0777 
9 1 50 51.9223 51.9223 
10 1 51.9223 48.0777 50 
11 1 51.9223 50 48.0777 
12 1 51.9223 50 51.9223 
13 1 51.9223 51.9223 50 
14 1 46.1339 50 50 
15 1 50 46.1339 50 
16 1 50 50 46.1339 
17 1 50 50 53.8661 
18 1 50 53.8661 50 
19 1 53.8661 50 50 
20 1 46.1468 48.0813 48.0813 
21 1 46.1468 48.0813 51.9187 
22 1 46.1468 51.9187 48.0813 
23 1 46.1468 51.9187 51.9187 
24 1 48.0813 46.1468 48.0813 
25 1 48.0813 46.1468 51.9187 
26 1 48.0813 48.0813 46.1468 
27 1 48.0813 48.0813 53.8532 
28 1 48.0813 51.9187 46.1468 
29 1 48.0813 51.9187 53.8532 
30 1 48.0813 53.8532 48.0813 
31 1 48.0813 53.8532 51.9187 
32 1 51.9187 46.1468 48.0813 
33 1 51.9187 46.1468 51.9187 
34 1 51.9187 48.0813 46.1468 
35 1 51.9187 48.0813 53.8532 
36 1 51.9187 51.9187 46.1468 
37 1 51.9187 51.9187 53.8532 
38 1 51.9187 53.8532 48.0813 
39 1 51.9187 53.8532 51.9187 
40 1 53.8532 48.0813 48.0813 
41 1 53.8532 48.0813 51.9187 
42 1 53.8532 51.9187 48.0813 
43 1 53.8532 51.9187 51.9187 
44 1 46.1633 46.1633 50 
45 1 46.1633 50 46.1633 
46 1 46.1633 50 53.8367 
47 1 46.1633 53.8367 50 
48 1 50 46.1633 46.1633 
49 1 50 46.1633 53.8367 
50 1 50 53.8367 46.1633 
51 1 50 53.8367 53.8367 
52 1 53.8367 46.1633 50 
53 1 53.8367 50 46.1633 
54 1 53.8367 50 53.8367 
55 1 53.8367 53.8367 50 
56 1 44.1839 48.0874 50 
57 1 44.1839 50 48.0874 
58 1 44.1839 50 51.9126 
59 1 44.1839 51.9126 50 
60 1 48.0874 44.1839 50 
61 1 48.0874 50 44.1839 
62 1 48.0874 50 55.8161 
63 1 48.0874 55.8161 50 
64 1 50 44.1839 48.0874 
65 1 50 44.1839 51.9126 
66 1 50 48.0874 44.1839 
67 1 50 48.0874 55.8161 
68 1 50 51.9126 44.1839 
69 1 50 51.9126 55.8161 
70 1 50 55.8161 48.0874 
71 1 50 55.8161 51.9126 
72 1 51.9126 44.1839 50 
73 1 51.9126 50 44.1839 
74 1 51.9126 50 55.8161 
75 1 51.9126 55.8161 50 
76 1 55.8161 48.0874 50 
77 1 55.8161 50 48.0874 
78 1 55.8161 50 51.9126 
79 1 55.8161 51.9126 50 
80 1 46.152 46.152 46.152 
81 1 46.152 46.152 53.848 
82 1 46.152 53.848 46.152 
83 1 46.152 53.848 53.848 
84 1 53.848 46.152 46.152 
85 1 53.848 46.152 53.848 
86 1 53.848 53.848 46.152 
87 1 53.848 53.848 53.848 
88 1 44.2197 46.1718 48.0834 
89 1 44.2197 46.1718 51.9166 
90 1 44.2197 48.0834 46.1718 
91 1 44.2197 48.0834 53.8282 
92 1 44.2197 51.9166 46.1718 
93 1 44.2197 51.9166 53.8282 
94 1 44.2197 53.8282 48.0834 
95 1 44.2197 53.8282 51.9166 
96 1 46.1718 44.2197 48.0834 
97 1 46.1718 44.2197 51.9166 
98 1 46.1718 48.0834 44.2197 
99 1 46.1718 48.0834 55.7803 
100 1 46.1718 51.9166 44.2197 
101 1 46.1718 51.9166 55.7803 
102 1 46.1718 55.7803 48.0834 
103 1 46.1718 55.7803 51.9166 
104 1 48.0834 44.2197 46.1718 
105 1 48.0834 44.2197 53.8282 
106 1 48.0834 46.1718 44.2197 
107 1 48.0834 46.1718 55.7803 
108 1 48.0834 53.8282 44.2197 
109 1 48.0834 53.8282 55.7803 
110 1 48.0834 55.7803 46.1718 
111 1 48.0834 55.7803 53.8282 
112 1 51.9166 44.2197 46.1718 
113 1 51.9166 44.2197 53.8282 
114 1 51.9166 46.1718 44.2197 
115 1 51.9166 46.1718 55.7803 
116 1 51.9166 53.8282 44.2197 
117 1 51.9166 53.8282 55.7803 
118 1 51.9166 55.7803 46.1718 
119 1 51.9166 55.7803 53.8282 
120 1 53.8282 44.2197 48.0834 
121 1 53.8282 44.2197 51.9166 
122 1 53.8282 48.0834 44.2197 
123 1 53.8282 48.0834 55.7803 
124 1 53.8282 51.9166 44.2197 
125 1 53.8282 51.9166 55.7803 
126 1 53.8282 55.7803 48.0834 
127 1 53.8282 55.7803 51.9166 
128 1 55.7803 46.1718 48.0834 
129 1 55.7803 46.1718 51.9166 
130 1 55.7803 48.0834 46.1718 
131 1 55.7803 48.0834 53.8282 
132 1 55.7803 51.9166 46.1718 
133 1 55.7803 51.9166 53.8282 
134 1 55.7803 53.8282 48.0834 
135 1 55.7803 53.8282 51.9166 
136 1 44.2577 44.2577 50 
137 1 44.2577 50 44.2577 
138 1 44.2577 50 55.7423 
139 1 44.2577 55.7423 50 
140 1 50 44.2577 44.2577 
141 1 50 44.2577 55.7423 
142 1 50 55.7423 44.2577 
143 1 50 55.7423 55.7423 
144 1 55.7423 44.2577 50 
145 1 55.7423 50 44.2577 
146 1 55.7423 50 55.7423 
147 1 55.7423 55.7423 50 
148 1 42.1895 50 50 
149 1 50 42.1895 50 
150 1 50 50 42.1895 
151 1 50 50 57.8105 
152 1 50 57.8105 50 
153 1 57.8105 50 50 
154 1 42.2099 48.0888 48.0888 
155 1 42.2099 48.0888 51.9112 
156 1 42.2099 51.9112 48.0888 
157 1 42.2099 51.9112 51.9112 
158 1 48.0888 42.2099 48.0888 
159 1 48.0888 42.2099 51.9112 
160 1 48.0888 48.0888 42.2099 
161 1 48.0888 48.0888 57.7901 
162 1 48.0888 51.9112 42.2099 
163 1 48.0888 51.9112 57.7901 
164 1 48.0888 57.7901 48.0888 
165 1 48.0888 57.7901 51.9112 
166 1 51.9112 42.2099 48.0888 
167 1 51.9112 42.2099 51.9112 
168 1 51.9112 48.0888 42.2099 
169 1 51.9112 48.0888 57.7901 
170 1 51.9112 51.9112 42.2099 
171 1 51.9112 51.9112 57.7901 
172 1 51.9112 57.7901 48.0888 
173 1 51.9112 57.7901 51.9112 
174 1 57.7901 48.0888 48.0888 
175 1 57.7901 48.0888 51.9112 
176 1 57.7901 51.9112 48.0888 
177 1 57.7901 51.9112 51.9112 
178 1 42.2343 46.1852 50 
179 1 42.2343 50 46.1852 
180 1 42.2343 50 53.8148 
181 1 42.2343 53.8148 50 
182 1 46.1852 42.2343 50 
183 1 46.1852 50 42.2343 
184 1 46.1852 50 57.7657 
185 1 46.1852 57.7657 50 
186 1 50 42.2343 46.1852 
187 1 50 42.2343 53.8148 
188 1 50 46.1852 42.2343 
189 1 50 46.1852 57.7657 
190 1 50 53.8148 42.2343 
191 1 50 53.8148 57.7657 
192 1 50 57.7657 46.1852 
193 1 50 57.7657 53.8148 
194 1 53.8148 42.2343 50 
195 1 53.8148 50 42.2343 
196 1 53.8148 50 57.7657 
197 1 53.8148 57.7657 50 
198 1 57.7657 46.1852 50 
199 1 57.7657 50 46.1852 
200 1 57.7657 50 53.8148 
201 1 57.7657 53.8148 50 
202 1 44.2223 44.2223 46.1465 
203 1 44.2223 44.2223 53.8535 
204 1 44.2223 46.1465 44.2223 
205 1 44.2223 46.1465 55.7777 
206 1 44.2223 53.8535 44.2223 
207 1 44.2223 53.8535 55.7777 
208 1 44.2223 55.7777 46.1465 
209 1 44.2223 55.7777 53.8535 
210 1 46.1465 44.2223 44.2223 
211 1 46.1465 44.2223 55.7777 
212 1 46.1465 55.7777 44.2223 
213 1 46.1465 55.7777 55.7777 
214 1 53.8535 44.2223 44.2223 
215 1 53.8535 44.2223 55.7777 
216 1 53.8535 55.7777 44.2223 
217 1 53.8535 55.7777 55.7777 
218 1 55.7777 44.2223 46.1465 
219 1 55.7777 44.2223 53.8535 
220 1 55.7777 46.1465 44.2223 
221 1 55.7777 46.1465 55.7777 
222 1 55.7777 53.8535 44.2223 
223 1 55.7777 53.8535 55.7777 
224 1 55.7777 55.7777 46.1465 
225 1 55.7777 55.7777 53.8535 
226 1 42.2722 46.1733 46.1733 
227 1 42.2722 46.1733 53.8267 
228 1 42.2722 53.8267 46.1733 
229 1 42.2722 53.8267 53.8267 
230 1 46.1733 42.2722 46.1733 
231 1 46.1733 42.2722 53.8267 
232 1 46.1733 46.1733 42.2722 
233 1 46.1733 46.1733 57.7278 
234 1 46.1733 53.8267 42.2722 
235 1 46.1733 53.8267 57.7278 
236 1 46.1733 57.7278 46.1733 
237 1 46.1733 57.7278 53.8267 
238 1 53.8267 42.2722 46.1733 
239 1 53.8267 42.2722 53.8267 
240 1 53.8267 46.1733 42.2722 
241 1 53.8267 46.1733 57.7278 
242 1 53.8267 53.8267 42.2722 
243 1 53.8267 53.8267 57.7278 
244 1 53.8267 57.7278 46.1733 
245 1 53.8267 57.7278 53.8267 
246 1 57.7278 46.1733 46.1733 
247 1 57.7278 46.1733 53.8267 
248 1 57.7278 53.8267 46.1733 
249 1 57.7278 53.8267 53.8267 
250 1 42.2967 44.2739 48.0785 
251 1 42.2967 44.2739 51.9215 
252 1 42.2967 48.0785 44.2739 
253 1 42.2967 48.0785 55.7261 
254 1 42.2967 51.9215 44.2739 
255 1 42.2967 51.9215 55.7261 
256 1 42.2967 55.7261 48.0785 
257 1 42.2967 55.7261 51.9215 
258 1 44.2739 42.2967 48.0785 
259 1 44.2739 42.2967 51.9215 
260 1 44.2739 48.0785 42.2967 
261 1 44.2739 48.0785 57.7033 
262 1 44.2739 51.9215 42.2967 
263 1 44.2739 51.9215 57.7033 
264 1 44.2739 57.7033 48.0785 
265 1 44.2739 57.7033 51.9215 
266 1 48.0785 42.2967 44.2739 
267 1 48.0785 42.2967 55.7261 
268 1 48.0785 44.2739 42.2967 
269 1 48.0785 44.2739 57.7033 
270 1 48.0785 55.7261 42.2967 
271 1 48.0785 55.7261 57.7033 
272 1 48.0785 57.7033 44.2739 
273 1 48.0785 57.7033 55.7261 
274 1 51.9215 42.2967 44.2739 
275 1 51.9215 42.2967 55.7261 
276 1 51.9215 44.2739 42.2967 
277 1 51.9215 44.2739 57.7033 
278 1 51.9215 55.7261 42.2967 
279 1 51.9215 55.7261 57.7033 
280 1 51.9215 57.7033 44.2739 
281 1 51.9215 57.7033 55.7261 
282 1 55.7261 42.2967 48.0785 
283 1 55.7261 42.2967 51.9215 
284 1 55.7261 48.0785 42.2967 
285 1 55.7261 48.0785 57.7033 
286 1 55.7261 51.9215 42.2967 
287 1 55.7261 51.9215 57.7033 
288 1 55.7261 57.7033 48.0785 
289 1 55.7261 57.7033 51.9215 
290 1 57.7033 44.2739 48.0785 
291 1 57.7033 44.2739 51.9215 
292 1 57.7033 48.0785 44.2739 
293 1 57.7033 48.0785 55.7261 
294 1 57.7033 51.9215 44.2739 
295 1 57.7033 51.9215 55.7261 
296 1 57.7033 55.7261 48.0785 
297 1 57.7033 55.7261 51.9215 
298 1 42.3814 42.3814 50 
299 1 42.3814 50 42.3814 
300 1 42.3814 50 57.6186 
301 1 42.3814 57.6186 50 
302 1 50 42.3814 42.3814 
303 1 50 42.3814 57.6186 
304 1 50 57.6186 42.3814 
305 1 50 57.6186 57.6186 
306 1 57.6186 42.3814 50 
307 1 57.6186 50 42.3814 
308 1 57.6186 50 57.6186 
309 1 57.6186 57.6186 50 
310 1 40.2536 48.0869 50 
311 1 40.2536 50 48.0869 
312 1 40.2536 50 51.9131 
313 1 40.2536 51.9131 50 
314 1 48.0869 40.2536 50 
315 1 48.0869 50 40.2536 
316 1 48.0869 50 59.7464 
317 1 48.0869 59.7464 50 
318 1 50 40.2536 48.0869 
319 1 50 40.2536 51.9131 
320 1 50 48.0869 40.2536 
321 1 50 48.0869 59.7464 
322 1 50 51.9131 40.2536 
323 1 50 51.9131 59.7464 
324 1 50 59.7464 48.0869 
325 1 50 59.7464 51.9131 
326 1 51.9131 40.2536 50 
327 1 51.9131 50 40.2536 
328 1 51.9131 50 59.7464 
329 1 51.9131 59.7464 50 
330 1 59.7464 48.0869 50 
331 1 59.7464 50 48.0869 
332 1 59.7464 50 51.9131 
333 1 59.7464 51.9131 50 
334 1 40.2898 46.1768 48.0859 
335 1 40.2898 46.1768 51.9141 
336 1 40.2898 48.0859 46.1768 
337 1 40.2898 48.0859 53.8232 
338 1 40.2898 51.9141 46.1768 
339 1 40.2898 51.9141 53.8232 
340 1 40.2898 53.8232 48.0859 
341 1 40.2898 53.8232 51.9141 
342 1 46.1768 40.2898 48.0859 
343 1 46.1768 40.2898 51.9141 
344 1 46.1768 48.0859 40.2898 
345 1 46.1768 48.0859 59.7102 
346 1 46.1768 51.9141 40.2898 
347 1 46.1768 51.9141 59.7102 
348 1 46.1768 59.7102 48.0859 
349 1 46.1768 59.7102 51.9141 
350 1 48.0859 40.2898 46.1768 
351 1 48.0859 40.2898 53.8232 
352 1 48.0859 46.1768 40.2898 
353 1 48.0859 46.1768 59.7102 
354 1 48.0859 53.8232 40.2898 
355 1 48.0859 53.8232 59.7102 
356 1 48.0859 59.7102 46.1768 
357 1 48.0859 59.7102 53.8232 
358 1 51.9141 40.2898 46.1768 
359 1 51.9141 40.2898 53.8232 
360 1 51.9141 46.1768 40.2898 
361 1 51.9141 46.1768 59.7102 
362 1 51.9141 53.8232 40.2898 
363 1 51.9141 53.8232 59.7102 
364 1 51.9141 59.7102 46.1768 
365 1 51.9141 59.7102 53.8232 
366 1 53.8232 40.2898 48.0859 
367 1 53.8232 40.2898 51.9141 
368 1 53.8232 48.0859 40.2898 
369 1 53.8232 48.0859 59.7102 
370 1 53.8232 51.9141 40.2898 
371 1 53.8232 51.9141 59.7102 
372 1 53.8232 59.7102 48.0859 
373 1 53.8232 59.7102 51.9141 
374 1 59.7102 46.1768 48.0859 
375 1 59.7102 46.1768 51.9141 
376 1 59.7102 48.0859 46.1768 
377 1 59.7102 48.0859 53.8232 
378 1 59.7102 51.9141 46.1768 
379 1 59.7102 51.9141 53.8232 
380 1 59.7102 53.8232 48.0859 
381 1 59.7102 53.8232 51.9141 
382 1 40.3309 44.2772 50 
383 1 40.3309 50 44.2772 
384 1 40.3309 50 55.7228 
385 1 40.3309 55.7228 50 
386 1 42.284 44.21 44.21 
387 1 42.284 44.21 55.79 
388 1 42.284 55.79 44.21 
389 1 42.284 55.79 55.79 
390 1 44.2772 40.3309 50 
391 1 44.21 42.284 44.21 
392 1 44.21 42.284 55.79 
393 1 44.21 44.21 42.284 
394 1 44.21 44.21 57.716 
395 1 44.2772 50 40.3309 
396 1 44.2772 50 59.6691 
397 1 44.21 55.79 42.284 
398 1 44.21 55.79 57.716 
399 1 44.21 57.716 44.21 
400 1 44.21 57.716 55.79 
401 1 44.2772 59.6691 50 
402 1 50 40.3309 44.2772 
403 1 50 40.3309 55.7228 
404 1 50 44.2772 40.3309 
405 1 50 44.2772 59.6691 
406 1 50 55.7228 40.3309 
407 1 50 55.7228 59.6691 
408 1 50 59.6691 44.2772 
409 1 50 59.6691 55.7228 
410 1 55.7228 40.3309 50 
411 1 55.79 42.284 44.21 
412 1 55.79 42.284 55.79 
413 1 55.79 44.21 42.284 
414 1 55.79 44.21 57.716 
415 1 55.7228 50 40.3309 
416 1 55.7228 50 59.6691 
417 1 55.79 55.79 42.284 
418 1 55.79 55.79 57.716 
419 1 55.79 57.716 44.21 
420 1 55.79 57.716 55.79 
421 1 55.7228 59.6691 50 
422 1 57.716 44.21 44.21 
423 1 57.716 44.21 55.79 
424 1 57.716 55.79 44.21 
425 1 57.716 55.79 55.79 
426 1 59.6691 44.2772 50 
427 1 59.6691 50 44.2772 
428 1 59.6691 50 55.7228 
429 1 59.6691 55.7228 50 
430 1 42.3004 42.3004 46.1214 
431 1 42.3004 42.3004 53.8786 
432 1 42.3004 46.1214 42.3004 
433 1 42.3004 46.1214 57.6996 
434 1 42.3004 53.8786 42.3004 
435 1 42.3004 53.8786 57.6996 
436 1 42.3004 57.6996 46.1214 
437 1 42.3004 57.6996 53.8786 
438 1 46.1214 42.3004 42.3004 
439 1 46.1214 42.3004 57.6996 
440 1 46.1214 57.6996 42.3004 
441 1 46.1214 57.6996 57.6996 
442 1 53.8786 42.3004 42.3004 
443 1 53.8786 42.3004 57.6996 
444 1 53.8786 57.6996 42.3004 
445 1 53.8786 57.6996 57.6996 
446 1 57.6996 42.3004 46.1214 
447 1 57.6996 42.3004 53.8786 
448 1 57.6996 46.1214 42.3004 
449 1 57.6996 46.1214 57.6996 
450 1 57.6996 53.8786 42.3004 
451 1 57.6996 53.8786 57.6996 
452 1 57.6996 57.6996 46.1214 
453 1 57.6996 57.6996 53.8786 
454 1 40.4306 44.2711 46.1752 
455 1 40.4306 44.2711 53.8248 
456 1 40.4306 46.1752 44.2711 
457 1 40.4306 46.1752 55.7289 
458 1 40.4306 53.8248 44.2711 
459 1 40.4306 53.8248 55.7289 
460 1 40.4306 55.7289 46.1752 
461 1 40.4306 55.7289 53.8248 
462 1 44.2711 40.4306 46.1752 
463 1 44.2711 40.4306 53.8248 
464 1 44.2711 46.1752 40.4306 
465 1 44.2711 46.1752 59.5694 
466 1 44.2711 53.8248 40.4306 
467 1 44.2711 53.8248 59.5694 
468 1 44.2711 59.5694 46.1752 
469 1 44.2711 59.5694 53.8248 
470 1 46.1752 40.4306 44.2711 
471 1 46.1752 40.4306 55.7289 
472 1 46.1752 44.2711 40.4306 
473 1 46.1752 44.2711 59.5694 
474 1 46.1752 55.7289 40.4306 
475 1 46.1752 55.7289 59.5694 
476 1 46.1752 59.5694 44.2711 
477 1 46.1752 59.5694 55.7289 
478 1 53.8248 40.4306 44.2711 
479 1 53.8248 40.4306 55.7289 
480 1 53.8248 44.2711 40.4306 
481 1 53.8248 44.2711 59.5694 
482 1 53.8248 55.7289 40.4306 
483 1 53.8248 55.7289 59.5694 
484 1 53.8248 59.5694 44.2711 
485 1 53.8248 59.5694 55.7289 
486 1 55.7289 40.4306 46.1752 
487 1 55.7289 40.4306 53.8248 
488 1 55.7289 46.1752 40.4306 
489 1 55.7289 46.1752 59.5694 
490 1 55.7289 53.8248 40.4306 
491 1 55.7289 53.8248 59.5694 
492 1 55.7289 59.5694 46.1752 
493 1 55.7289 59.5694 53.8248 
494 1 59.5694 44.2711 46.1752 
495 1 59.5694 44.2711 53.8248 
496 1 59.5694 46.1752 44.2711 
497 1 59.5694 46.1752 55.7289 
498 1 59.5694 53.8248 44.2711 
499 1 59.5694 53.8248 55.7289 
500 1 59.5694 55.7289 46.1752 
501 1 59.5694 55.7289 53.8248 
502 1 40.4688 42.3878 48.0868 
503 1 40.4688 42.3878 51.9132 
504 1 40.4688 57.6122 48.0868 
505 1 40.4688 57.6122 51.9132 
506 1 42.3878 40.4688 48.0868 
507 1 42.3878 40.4688 51.9132 
508 1 42.3878 59.5312 48.0868 
509 1 42.3878 59.5312 51.9132 
510 1 57.6122 40.4688 48.0868 
511 1 57.6122 40.4688 51.9132 
512 1 57.6122 59.5312 48.0868 
513 1 57.6122 59.5312 51.9132 
514 1 59.5312 42.3878 48.0868 
515 1 59.5312 42.3878 51.9132 
516 1 59.5312 57.6122 48.0868 
517 1 59.5312 57.6122 51.9132 
518 1 40.4688 48.0868 42.3878 
519 1 40.4688 48.0868 57.6122 
520 1 40.4688 51.9132 42.3878 
521 1 40.4688 51.9132 57.6122 
522 1 42.3878 48.0868 40.4688 
523 1 42.3878 48.0868 59.5312 
524 1 42.3878 51.9132 40.4688 
525 1 42.3878 51.9132 59.5312 
526 1 48.0868 40.4688 42.3878 
527 1 48.0868 40.4688 57.6122 
528 1 48.0868 42.3878 40.4688 
529 1 48.0868 42.3878 59.5312 
530 1 48.0868 57.6122 40.4688 
531 1 48.0868 57.6122 59.5312 
532 1 48.0868 59.5312 42.3878 
533 1 48.0868 59.5312 57.6122 
534 1 51.9132 40.4688 42.3878 
535 1 51.9132 40.4688 57.6122 
536 1 51.9132 42.3878 40.4688 
537 1 51.9132 42.3878 59.5312 
538 1 51.9132 57.6122 40.4688 
539 1 51.9132 57.6122 59.5312 
540 1 51.9132 59.5312 42.3878 
541 1 51.9132 59.5312 57.6122 
542 1 57.6122 48.0868 40.4688 
543 1 57.6122 48.0868 59.5312 
544 1 57.6122 51.9132 40.4688 
545 1 57.6122 51.9132 59.5312 
546 1 59.5312 48.0868 42.3878 
547 1 59.5312 48.0868 57.6122 
548 1 59.5312 51.9132 42.3878 
549 1 59.5312 51.9132 57.6122 
550 1 40.5878 40.5878 50 
551 1 40.5878 50 40.5878 
552 1 40.5878 50 59.4122 
553 1 40.5878 59.4122 50 
554 1 50 40.5878 40.5878 
555 1 50 40.5878 59.4122 
556 1 50 59.4122 40.5878 
557 1 50 59.4122 59.4122 
558 1 59.4122 40.5878 50 
559 1 59.4122 50 40.5878 
560 1 59.4122 50 59.4122 
561 1 59.4122 59.4122 50 
ITEM: TIMESTEP
200
ITEM: NUMBER OF ATOMS
561
ITEM: BOX BOUNDS ff ff ff
-0.0000000000000000e+000 1.0000000000000000e+002
-0.0000000000000000e+000 1.0000000000000000e+002
-0.0000000000000000e+000 1.0000000000000000e+002
ITEM: ATOMS id type x y z 
1 1 50.1064 50.1407 50.0392 
2 1 48.3489 48.1993 50.0503 
3 1 48.3183 50.0938 48.1156 
4 1 48.1339 50.0436 52.1734 
5 1 47.9901 51.7112 50.1185 
6 1 50.0139 48.3141 48.3079 
7 1 50.1994 48.371 51.7333 
8 1 49.7169 52.1234 48.0055 
9 1 50.107 51.6039 51.8022 
10 1 51.9558 48.1641 49.9466 
11 1 51.8347 50.088 48.1661 
12 1 51.9621 49.8989 51.812 
13 1 51.8414 51.8181 49.9522 
14 1 46.0235 49.8155 50.108 
15 1 50.2119 46.2831 50.0477 
16 1 49.9335 50.0742 46.366 
17 1 49.9708 49.9656 53.8972 
18 1 49.7895 53.9099 50.0325 
19 1 53.785 49.9208 50.1644 
20 1 46.2024 48.1596 47.9999 
21 1 46.0588 48.0911 52.2664 
22 1 46.3955 51.9881 48.1705 
23 1 46.3104 51.8433 51.9874 
24 1 47.9624 46.263 48.19 
25 1 47.8272 46.122 51.7629 
26 1 48.1793 48.0393 46.1478 
27 1 47.8297 47.8923 53.8843 
28 1 48.1501 51.9921 46.1626 
29 1 47.9557 51.7231 53.819 
30 1 47.9924 53.7868 47.8435 
31 1 47.981 53.4162 52.1955 
32 1 52.1307 46.1411 47.9581 
33 1 52.1321 46.2727 51.8317 
34 1 51.8395 48.2549 46.3798 
35 1 51.885 47.9979 53.8681 
36 1 51.778 52.1 46.0875 
37 1 51.7592 51.7584 53.9292 
38 1 51.7338 53.8409 48.0068 
39 1 51.7347 53.7395 51.7299 
40 1 53.8122 48.152 48.2945 
41 1 53.962 48.1627 51.7836 
42 1 53.7755 52.0754 47.8413 
43 1 53.6585 51.9598 51.8503 
44 1 46.2121 46.4647 49.9135 
45 1 46.2766 49.9324 46.1212 
46 1 46.2078 49.9976 53.8265 
47 1 46.3585 53.7439 50.0588 
48 1 50.0529 46.3542 46.3866 
49 1 50.0394 46.4473 53.645 
50 1 49.8745 53.8943 45.9848 
51 1 49.7598 53.6812 53.9553 
52 1 53.9523 46.4228 50.1444 
53 1 53.87 49.9936 46.09 
54 1 53.74 49.9199 53.7966 
55 1 53.6153 53.8562 49.9024 
56 1 44.1703 48.0574 49.9483 
57 1 44.445 50.1122 48.2027 
58 1 44.3866 50.1224 52.2432 
59 1 44.603 51.8662 50.1337 
60 1 48.0194 44.3155 49.7849 
61 1 48.4237 50.1532 44.3649 
62 1 47.944 49.9511 55.6166 
63 1 48.1784 55.6062 49.7868 
64 1 50.2517 44.4736 48.0649 
65 1 49.7314 44.1721 51.8924 
66 1 50.2499 47.9627 44.6371 
67 1 49.8106 48.1382 55.6876 
68 1 50.0001 52.0447 44.2305 
69 1 50.0033 51.7156 55.6052 
70 1 50.0932 55.6789 47.8951 
71 1 49.7919 55.4461 51.9837 
72 1 52.3307 44.2542 49.9745 
73 1 51.9818 50.2715 44.5793 
74 1 51.8455 49.8247 55.613 
75 1 51.991 55.4563 49.9798 
76 1 55.8509 48.2308 50.1409 
77 1 55.6443 50.0867 47.9847 
78 1 55.4865 50.1867 51.8583 
79 1 55.3418 52.0851 49.8347 
80 1 46.0675 46.2736 46.1317 
81 1 46.0788 46.0802 54.0081 
82 1 46.0185 53.7381 46.0176 
83 1 46.1598 53.784 54.248 
84 1 53.919 45.7448 46.1968 
85 1 54.0064 46.3629 53.6254 
86 1 53.7044 53.7705 45.915 
87 1 53.4582 53.6972 53.8271 
88 1 44.1948 46.47 47.9583 
89 1 44.2016 46.4408 51.8631 
90 1 44.3704 48.2651 46.0228 
91 1 44.3417 48.0534 54.0966 
92 1 44.5465 51.6528 46.0653 
93 1 44.6106 51.7745 53.9744 
94 1 44.6114 53.4081 48.283 
95 1 44.6846 53.4841 52.0971 
96 1 45.8886 44.6204 47.8921 
97 1 45.8874 44.4793 51.8516 
98 1 46.1621 47.9791 44.1374 
99 1 46.1295 48.0357 55.6642 
100 1 46.143 51.8561 44.2195 
101 1 46.0804 51.9693 56.1118 
102 1 45.9933 55.4037 47.9033 
103 1 46.1533 55.423 52.3992 
104 1 48.1927 44.3745 46.3957 
105 1 47.8175 44.3055 53.843 
106 1 48.2549 46.1479 44.619 
107 1 48.1623 46.1753 55.6303 
108 1 48.0979 53.731 44.0867 
109 1 47.942 53.681 55.7154 
110 1 47.8391 55.7225 45.8078 
111 1 47.9697 55.4938 54.0799 
112 1 52.3984 44.0813 46.2036 
113 1 51.8584 44.3909 53.3654 
114 1 51.9889 46.1608 44.946 
115 1 52.0529 46.1376 55.4349 
116 1 51.683 54.0718 44.2698 
117 1 51.6501 53.8048 55.6055 
118 1 51.7218 55.6217 46.0303 
119 1 51.7449 55.375 53.9285 
120 1 54.0258 44.3152 47.9247 
121 1 54.0545 44.5342 51.8557 
122 1 53.8077 47.7061 44.9398 
123 1 53.726 48.0235 55.4186 
124 1 53.757 51.9517 44.4693 
125 1 53.5961 51.9038 55.3279 
126 1 53.8907 55.3903 47.9638 
127 1 53.521 55.4427 51.9859 
128 1 55.5324 46.4447 48.218 
129 1 55.7633 46.1456 51.8069 
130 1 55.5913 48.0507 46.411 
131 1 55.588 48.3368 53.776 
132 1 55.6757 52.109 46.2112 
133 1 55.4938 51.9982 53.7205 
134 1 55.5502 53.7539 47.8627 
135 1 55.479 53.6898 51.7766 
136 1 44.2097 44.8102 49.9226 
137 1 44.5316 50.0189 44.4584 
138 1 44.3468 49.9686 55.6531 
139 1 44.6629 55.5854 50.142 
140 1 50.1265 44.3667 44.9574 
141 1 50.0736 44.4445 55.2677 
142 1 49.7598 55.7784 44.117 
143 1 49.8641 55.6522 55.7987 
144 1 55.7619 44.3762 49.9776 
145 1 55.5401 50.247 44.3937 
146 1 55.3672 50.065 55.4508 
147 1 55.5769 55.3547 49.8401 
148 1 42.8198 50.2542 50.1182 
149 1 49.9459 42.5389 50.0382 
150 1 50.1633 50.1142 42.8648 
151 1 49.9343 49.8092 57.2853 
152 1 50.2825 57.0559 50.0913 
153 1 57.2724 50.1804 50.1505 
154 1 42.5741 48.0865 47.8931 
155 1 42.384 48.1827 51.8898 
156 1 42.525 52.13 48.4145 
157 1 42.5703 52.0801 52.2457 
158 1 47.8882 42.378 48.1676 
159 1 47.8315 42.5756 51.901 
160 1 48.4092 48.0556 42.794 
161 1 48.0175 48.1896 57.2476 
162 1 48.15 52.0381 42.4924 
163 1 48.0556 51.6154 57.5991 
164 1 47.7128 57.3431 47.8435 
165 1 47.8562 57.352 52.0907 
166 1 52.1249 42.4992 48.3979 
167 1 51.7465 42.5061 51.8623 
168 1 52.3056 48.361 42.9195 
169 1 51.8875 48.0754 57.2358 
170 1 52.0449 51.9366 42.5782 
171 1 51.7567 51.7385 57.3373 
172 1 52.0115 57.0982 48.1759 
173 1 51.9052 57.2435 51.9289 
174 1 57.6026 48.2943 48.1723 
175 1 57.2901 48.2814 51.9701 
176 1 57.245 52.0282 48.0741 
177 1 57.2235 52.0296 51.9318 
178 1 42.4637 46.3703 49.9776 
179 1 42.5559 49.998 46.428 
180 1 42.7124 50.0456 54.0552 
181 1 42.8816 53.699 50.3109 
182 1 45.8768 42.8788 50.1475 
183 1 46.1999 50.171 42.5069 
184 1 46.0546 49.5893 57.4295 
185 1 46.1439 57.5704 50.1613 
186 1 50.1062 42.4476 46.6201 
187 1 49.6967 42.4476 53.85 
188 1 50.4287 46.4441 42.8623 
189 1 50.2851 46.0874 57.0282 
190 1 49.8471 53.7225 42.5334 
191 1 49.7563 53.8031 57.5525 
192 1 49.774 57.436 45.8644 
193 1 49.9309 57.3205 54.1027 
194 1 54.2 42.5002 50.0231 
195 1 53.8409 50.1644 42.5952 
196 1 53.5623 50.0067 57.1279 
197 1 53.9542 57.0306 49.9714 
198 1 57.6133 46.1109 50.2022 
199 1 57.2456 50.0964 46.245 
200 1 57.251 50.1975 53.7739 
201 1 57.4166 53.7888 49.8569 
202 1 44.076 44.4883 46.0315 
203 1 43.8359 44.2928 53.8162 
204 1 44.211 46.4274 44.4842 
205 1 43.9692 45.987 55.7228 
206 1 44.3363 53.4239 44.1914 
207 1 44.5377 54.3349 56.2465 
208 1 44.4856 55.7968 45.858 
209 1 44.5167 55.9879 54.2415 
210 1 46.2435 44.3733 44.5749 
211 1 45.6869 44.0231 55.9515 
212 1 46.1646 55.5614 43.9427 
213 1 46.3678 55.9087 55.7792 
214 1 54.0533 44.1249 44.3617 
215 1 53.8658 44.5788 55.1636 
216 1 53.768 55.7309 44.1486 
217 1 53.507 55.5549 55.618 
218 1 56.0502 44.0172 46.1729 
219 1 55.7603 44.5029 53.71 
220 1 55.7183 46.0394 44.4407 
221 1 55.718 46.1415 55.4781 
222 1 55.7863 54.0493 44.2114 
223 1 55.3316 53.6813 55.7704 
224 1 55.7041 55.8354 46.2158 
225 1 55.3565 55.4169 53.8252 
226 1 42.2391 46.2807 45.994 
227 1 42.4648 46.338 53.8859 
228 1 42.9337 53.5852 46.374 
229 1 43.2263 53.9336 54.0637 
230 1 46.1956 42.5964 46.5031 
231 1 46.2342 42.6207 53.721 
232 1 46.69 45.8006 42.6868 
233 1 45.9899 45.9575 57.2895 
234 1 46.2078 53.5823 42.3247 
235 1 46.2999 54.1983 57.7008 
236 1 46.2824 57.4666 45.842 
237 1 46.5621 57.5656 54.0841 
238 1 54.1017 42.2823 46.6295 
239 1 53.9592 42.7597 53.3994 
240 1 53.5559 46.3042 43.094 
241 1 53.8981 46.0905 57.1184 
242 1 53.6996 53.7778 42.613 
243 1 53.3809 53.707 57.3562 
244 1 53.6303 57.2353 45.8725 
245 1 53.6351 57.2392 53.7376 
246 1 57.3494 46.1455 46.1582 
247 1 57.5447 46.5706 53.7534 
248 1 57.3259 54.0405 46.1944 
249 1 57.292 53.8884 53.729 
250 1 42.3201 44.7333 48.1737 
251 1 42.3013 44.7951 51.8715 
252 1 42.7164 48.2675 44.4034 
253 1 42.6847 48.2744 55.7595 
254 1 42.6835 51.5333 44.2789 
255 1 42.7774 52.1978 55.8774 
256 1 43.083 55.4633 48.4371 
257 1 43.0933 55.4319 51.9919 
258 1 44.0894 42.9515 48.1309 
259 1 43.8392 42.9024 51.766 
260 1 44.3566 48.3374 42.6016 
261 1 44.3505 47.8883 57.3105 
262 1 44.5139 51.4798 42.2934 
263 1 44.3896 52.4616 57.9181 
264 1 44.5699 57.7253 47.7764 
265 1 44.4557 57.555 52.0548 
266 1 48.2007 42.6397 44.6733 
267 1 47.912 42.5375 55.543 
268 1 48.5761 44.4053 42.9089 
269 1 48.1805 44.3812 57.0656 
270 1 48.0135 55.4247 42.3199 
271 1 48.0893 55.7636 57.6386 
272 1 47.9186 57.3601 43.7694 
273 1 48.3021 57.7018 55.8548 
274 1 52.1652 42.3215 44.6222 
275 1 51.8562 42.7636 55.1082 
276 1 51.9942 44.3532 43.142 
277 1 51.9305 44.1262 56.9383 
278 1 51.4597 55.4642 42.1831 
279 1 51.6582 55.6774 57.4576 
280 1 51.8107 57.244 44.0378 
281 1 51.943 57.4094 55.5193 
282 1 56.0154 42.3903 48.0495 
283 1 55.909 42.6833 52.1233 
284 1 55.4897 48.0615 42.982 
285 1 55.4916 48.1556 56.9829 
286 1 55.6142 52.0382 42.6511 
287 1 55.4356 51.8532 57.1184 
288 1 55.2471 57.518 48.0925 
289 1 55.4283 57.1268 51.8267 
290 1 57.4012 44.6537 48.1999 
291 1 57.7748 44.6062 52.0645 
292 1 57.1607 47.9598 44.4987 
293 1 57.3076 48.3134 55.6183 
294 1 57.381 52.0089 44.4054 
295 1 57.4013 52.1289 55.6346 
296 1 57.2178 55.7013 48.1962 
297 1 57.2058 55.7142 51.8797 
298 1 42.3048 43.2646 50.0609 
299 1 42.4681 49.7794 42.4182 
300 1 43.0519 50.3358 57.6743 
301 1 43.0269 57.3661 49.9274 
302 1 50.3255 42.2826 43.3177 
303 1 49.8389 42.5165 56.6236 
304 1 49.8539 57.3329 42.2888 
305 1 50.0423 57.424 57.4746 
306 1 57.6247 42.9862 50.2283 
307 1 57.2149 50.0553 42.837 
308 1 57.0849 50.3323 57.2044 
309 1 57.0523 57.3023 49.8916 
310 1 40.9433 48.3111 50.073 
311 1 40.7419 49.8996 48.1111 
312 1 40.1925 49.9477 52.3784 
313 1 40.711 51.4195 50.5308 
314 1 47.8239 40.6246 50.0915 
315 1 48.1253 49.9684 41.0899 
316 1 48.1632 49.7436 59.2899 
317 1 47.6898 59.1375 50.0224 
318 1 49.8827 40.3662 48.142 
319 1 49.6129 40.6478 51.8573 
320 1 50.2175 48.1276 41.1296 
321 1 50.0824 47.9184 58.7377 
322 1 50.0398 51.8308 40.775 
323 1 49.9194 51.5021 59.2094 
324 1 49.9808 58.7426 48.178 
325 1 49.7679 58.8678 51.8729 
326 1 51.8995 40.5788 50.0261 
327 1 52.4253 50.2666 40.8389 
328 1 51.7616 49.7934 59.0035 
329 1 51.6368 59.0137 49.9991 
330 1 59.2241 48.1865 49.9599 
331 1 59.5908 49.8401 48.1236 
332 1 58.9794 50.1211 51.7179 
333 1 58.9112 52.0092 49.9376 
334 1 40.5096 46.498 47.9854 
335 1 39.9672 46.8185 52.191 
336 1 40.7316 48.2725 46.1554 
337 1 40.6855 48.1145 54.1972 
338 1 40.8361 51.8236 46.1044 
339 1 40.7993 51.754 53.7179 
340 1 40.1832 53.6376 48.4698 
341 1 40.5785 53.4404 51.7806 
342 1 46.0072 40.809 48.2443 
343 1 45.7682 41.0101 51.7983 
344 1 46.3641 48.0366 41.0815 
345 1 46.2356 47.8164 58.8398 
346 1 46.1436 51.5914 40.2938 
347 1 46.3804 51.5193 59.3824 
348 1 46.2545 59.6509 48.1118 
349 1 45.9957 59.2945 51.7989 
350 1 47.6825 40.2621 46.5802 
351 1 47.9141 40.3458 53.3856 
352 1 48.4173 46.5125 40.8559 
353 1 48.1085 45.9702 58.7572 
354 1 48.0608 53.4578 40.6711 
355 1 48.239 53.6333 59.3308 
356 1 48.0937 59.1887 46.0706 
357 1 47.6435 59.8209 53.7349 
358 1 51.9844 40.647 46.6798 
359 1 51.713 40.6978 53.4929 
360 1 52.1554 46.3894 40.9132 
361 1 52.006 46.0156 58.9275 
362 1 51.8326 53.5143 40.3911 
363 1 51.795 53.7256 59.0962 
364 1 51.8966 58.8419 46.1036 
365 1 51.7217 59.5864 54.0277 
366 1 53.5899 40.4787 48.3294 
367 1 53.8934 40.4027 51.9803 
368 1 53.9976 48.2845 40.8656 
369 1 53.8123 47.6752 59.378 
370 1 53.7294 52.2101 40.6544 
371 1 53.4225 51.7314 59.0667 
372 1 53.3612 59.2702 48.1342 
373 1 53.067 59.2392 52.2725 
374 1 59.0688 46.3006 48.1072 
375 1 59.3155 46.6289 52.0305 
376 1 59.1048 48.0399 46.0683 
377 1 59.11 48.6797 53.8562 
378 1 59.033 51.8096 46.1897 
379 1 59.2345 51.9561 53.8707 
380 1 59.2761 53.8605 48.1578 
381 1 58.8381 53.7848 51.9306 
382 1 40.4437 44.9251 49.9975 
383 1 39.9305 49.7642 44.2429 
384 1 41.0156 50.3601 55.924 
385 1 41.0182 55.4448 50.1732 
386 1 42.044 44.2656 44.3978 
387 1 42.2233 43.9859 55.8435 
388 1 42.8709 55.717 43.8522 
389 1 42.3389 55.4905 56.3223 
390 1 43.8547 41.2004 49.987 
391 1 44.1155 42.3899 44.1337 
392 1 43.939 41.9869 56.0189 
393 1 44.3565 44.6536 42.7631 
394 1 44.0834 43.7511 57.6942 
395 1 44.5378 49.665 40.3182 
396 1 44.6042 49.621 59.2992 
397 1 45.0432 55.8296 41.8258 
398 1 44.0397 55.4139 58.3208 
399 1 44.9063 57.458 43.8089 
400 1 44.3077 57.4537 56.2821 
401 1 44.2355 59.3345 49.7842 
402 1 49.7961 40.1905 44.4773 
403 1 49.7666 40.3706 55.3268 
404 1 50.3867 44.5565 41.1345 
405 1 50.0796 44.206 58.9095 