LAMMPS (20 Apr 2018)
OMP_NUM_THREADS environment is not set. Defaulting to 1 thread. (../comm.cpp:90)
  using 1 OpenMP thread(s) per MPI task
# Ar in lj units

# simulation params in reduced units
# settable from command line
# epsilon = sigma = mass = 1.0

variable	x index 5
variable	y index 5
variable	z index 5
variable        rhostar index 0.8842
variable        dt index 0.005
variable        cutoff index 2.5
variable        skin index 0.3
variable        tinitial index 1.0
variable        nthermo index 10
variable        nsteps index 100

# script

units		lj
atom_style	atomic

lattice		fcc ${rhostar}
lattice		fcc 0.8842
Lattice spacing in x,y,z = 1.65388 1.65388 1.65388
region		box block 0 $x 0 $y 0 $z
region		box block 0 5 0 $y 0 $z
region		box block 0 5 0 5 0 $z
region		box block 0 5 0 5 0 5
create_box	1 box
Created orthogonal box = (0 0 0) to (8.26938 8.26938 8.26938)
  1 by 1 by 1 MPI processor grid
create_atoms	1 box
Created 500 atoms
  Time spent = 0 secs
mass		1 1.0

velocity	all create ${tinitial} 12345
velocity	all create 1.0 12345

pair_style	lj/cut ${cutoff}
pair_style	lj/cut 2.5
pair_coeff	1 1 1.0 1.0

neighbor	${skin} bin
neighbor	0.3 bin
neigh_modify	delay 0 every 20 check no

fix		1 all nve

timestep	${dt}
timestep	0.005

thermo		10

dump myDump all custom 100 trajectory.txt id type x y z
dump_modify myDump sort id

run		10000
Neighbor list info ...
  update every 20 steps, delay 0 steps, check no
  max neighbors/atom: 2000, page size: 100000
  master list distance cutoff = 2.8
  ghost atom cutoff = 2.8
  binsize = 1.4, bins = 6 6 6
  1 neighbor lists, perpetual/occasional/extra = 1 0 0
  (1) pair lj/cut, perpetual
      attributes: half, newton on
      pair build: half/bin/atomonly/newton
      stencil: half/bin/3d/newton
      bin: standard
Per MPI rank memory allocation (min/avg/max) = 3.937 | 3.937 | 3.937 Mbytes
Step Temp E_pair E_mol TotEng Press 
       0            1   -7.1026383            0   -5.6056383   -5.1224757 
      10   0.74213042   -6.7245488            0   -5.6135795   -3.1363153 
      20   0.36167746   -6.1681704            0   -5.6267393  -0.40461854 
      30    0.4684512   -6.3315744            0    -5.630303   -1.0390065 
      40   0.46774191   -6.3308002            0   -5.6305906    -1.077533 
      50   0.48323399   -6.3533122            0   -5.6299109   -1.1506287 
      60   0.49569105   -6.3711644            0   -5.6291149   -1.2296104 
      70    0.5208333   -6.4096336            0   -5.6299462   -1.4483636 
      80   0.53708431   -6.4345933            0   -5.6305781   -1.5945708 
      90   0.52618946   -6.4185937            0   -5.6308881   -1.5264055 
     100   0.52862701   -6.4231724            0   -5.6318178   -1.5714077 
     110   0.55310378   -6.4604818            0   -5.6324855   -1.7412272 
     120   0.51272316   -6.3986011            0   -5.6310545   -1.4625673 
     130   0.52071572   -6.4109087            0   -5.6313973   -1.5201719 
     140   0.55438702   -6.4602547            0   -5.6303374   -1.7852319 
     150   0.54947385   -6.4527989            0   -5.6302365   -1.7566424 
     160   0.54027247   -6.4391126            0   -5.6303247   -1.6503721 
     170   0.52843597   -6.4219387            0     -5.63087    -1.576834 
     180   0.53499219   -6.4326091            0   -5.6317258   -1.6604195 
     190   0.54954147    -6.454134            0   -5.6314704   -1.7761031 
     200   0.55823819   -6.4662947            0   -5.6306121   -1.8169957 
     210   0.53636806    -6.433249            0    -5.630306   -1.6569607 
     220   0.53954448   -6.4387633            0   -5.6310653    -1.661752 
     230   0.53221092   -6.4268891            0   -5.6301694   -1.6057394 
     240   0.51909008   -6.4078683            0   -5.6307904   -1.5342567 
     250   0.53976232   -6.4376389            0   -5.6296147   -1.6644967 
     260   0.52798171   -6.4202627            0    -5.629874    -1.585035 
     270   0.54362587   -6.4437463            0   -5.6299384   -1.6946704 
     280   0.55092483   -6.4540491            0   -5.6293147   -1.7388689 
     290   0.53120603   -6.4250837            0   -5.6298683    -1.580557 
     300   0.53374152   -6.4284692            0   -5.6294582   -1.5899623 
     310   0.55459854   -6.4586949            0   -5.6284608   -1.7375875 
     320   0.56041236   -6.4676802            0   -5.6287429   -1.7849755 
     330   0.54503593   -6.4441634            0   -5.6282446   -1.6851669 
     340   0.53006406    -6.421876            0   -5.6283701   -1.5771284 
     350    0.5228243   -6.4123381            0   -5.6296701   -1.5093911 
     360    0.5272007    -6.416953            0   -5.6277335   -1.5279065 
     370   0.53324455   -6.4256434            0   -5.6273763   -1.5851642 
     380   0.54706912   -6.4465838            0   -5.6276213   -1.6821381 
     390   0.52221616   -6.4118654            0   -5.6301078   -1.5307299 
     400   0.54031865   -6.4388109            0   -5.6299539   -1.6506116 
     410   0.53649088   -6.4330921            0   -5.6299653    -1.639752 
     420   0.53671425   -6.4337933            0   -5.6303321   -1.6179444 
     430   0.52626166   -6.4178043            0   -5.6299906   -1.5477548 
     440   0.53309202   -6.4286945            0   -5.6306558   -1.6007049 
     450   0.54180133     -6.44108            0   -5.6300034   -1.6560701 
     460   0.54543833    -6.446644            0   -5.6301228   -1.6777642 
     470   0.53445098   -6.4300942            0   -5.6300211   -1.6186864 
     480   0.55277216   -6.4566524            0   -5.6291525   -1.7492942 
     490   0.52333828   -6.4118909            0   -5.6284535   -1.5627594 
     500   0.53917154   -6.4359134            0   -5.6287736   -1.6600244 
     510   0.56074108   -6.4678536            0   -5.6284242   -1.8365551 
     520   0.55781614   -6.4625245            0   -5.6274737    -1.837359 
     530   0.54743373   -6.4470729            0   -5.6275646   -1.7503721 
     540    0.5368967   -6.4333277            0   -5.6295934   -1.6432337 
     550   0.51084019    -6.395083            0   -5.6303552   -1.4617307 
     560   0.51940508   -6.4079869            0   -5.6304375   -1.5207297 
     570   0.53814788   -6.4357215            0   -5.6301142   -1.6392117 
     580   0.52593757   -6.4163266            0    -5.628998   -1.5214488 
     590   0.52774764   -6.4188945            0   -5.6288563   -1.5095275 
     600   0.55351515   -6.4576696            0   -5.6290574    -1.693057 
     610   0.54104613   -6.4396426            0   -5.6296965   -1.6441662 
     620   0.54985872    -6.451797            0   -5.6286585   -1.7196782 
     630   0.55112727   -6.4535905            0   -5.6285529   -1.7434667 
     640   0.53736319   -6.4331007            0    -5.628668   -1.6650832 
     650   0.52825333   -6.4202017            0   -5.6294064   -1.6244721 
     660    0.5451993   -6.4456692            0   -5.6295058   -1.7215358 
     670   0.53701936   -6.4321261            0   -5.6282081    -1.628935 
     680   0.54808611   -6.4481607            0   -5.6276758   -1.6876164 
     690   0.56211129   -6.4693362            0   -5.6278555   -1.8038729 
     700   0.53510379   -6.4297017            0   -5.6286513    -1.655681 
     710   0.52412172   -6.4138685            0   -5.6292582   -1.5755683 
     720   0.52711983   -6.4168367            0   -5.6277383   -1.5697213 
     730   0.52996203   -6.4216105            0   -5.6282573   -1.5882578 
     740   0.55094514    -6.453597            0   -5.6288322   -1.7123573 
     750   0.54537595   -6.4446746            0   -5.6282468    -1.684004 
     760   0.55017655   -6.4511933            0    -5.627579   -1.7382922 
     770   0.54180137   -6.4401628            0   -5.6290862   -1.6904662 
     780   0.53154922      -6.4263            0   -5.6305709   -1.6235922 
     790   0.53923581   -6.4377398            0   -5.6305038   -1.6693028 
     800   0.53446648   -6.4307866            0   -5.6306903   -1.5969686 
     810   0.52007821   -6.4083025            0   -5.6297454   -1.4879472 
     820   0.55218771   -6.4559193            0   -5.6292943   -1.6968582 
     830    0.5280433   -6.4198691            0   -5.6293883   -1.5564943 
     840   0.53353323   -6.4278895            0   -5.6291902   -1.5708181 
     850   0.52140569   -6.4108816            0   -5.6303372   -1.5009834 
     860   0.53369511   -6.4291653            0   -5.6302238   -1.6024975 
     870   0.54577015   -6.4470392            0   -5.6300213    -1.687531 
     880    0.5192448   -6.4066744            0    -5.629365     -1.53212 
     890   0.55776188   -6.4647256            0   -5.6297561   -1.7763458 
     900   0.54011359   -6.4389532            0   -5.6304031    -1.685514 
     910    0.5398656   -6.4386901            0   -5.6305113   -1.6839122 
     920    0.5349638    -6.432371            0   -5.6315302   -1.6660707 
     930   0.55536436   -6.4623007            0   -5.6309202   -1.8265994 
     940   0.55629018   -6.4631659            0   -5.6303995   -1.8185603 
     950   0.52307016   -6.4122481            0   -5.6292121   -1.5465696 
     960   0.50767653   -6.3888401            0   -5.6288483   -1.4168085 
     970    0.5420694   -6.4397977            0   -5.6283198   -1.6358208 
     980   0.55389343   -6.4577401            0   -5.6285616   -1.7360154 
     990   0.53462526    -6.429528            0    -5.629194   -1.6188807 
    1000   0.53563125   -6.4325114            0   -5.6306715    -1.604567 
    1010   0.53307797   -6.4288961            0   -5.6308783   -1.6048734 
    1020   0.53267506   -6.4277765            0   -5.6303619   -1.6252377 
    1030   0.54704469   -6.4499838            0   -5.6310579   -1.6993123 
    1040   0.53852216   -6.4359598            0   -5.6297921   -1.6405818 
    1050   0.55519257   -6.4624016            0   -5.6312783   -1.7576795 
    1060   0.52545683    -6.417096            0   -5.6304871   -1.5745917 
    1070   0.51188002   -6.3963107            0   -5.6300263   -1.4742404 
    1080   0.52454981   -6.4158816            0   -5.6306305   -1.5738632 
    1090   0.55381144   -6.4587821            0   -5.6297263   -1.7651653 
    1100   0.54054468   -6.4403435            0   -5.6311481   -1.6456708 
    1110   0.53117306   -6.4259956            0   -5.6308295   -1.5422684 
    1120   0.54080913   -6.4414175            0   -5.6318262   -1.5958838 
    1130   0.51114623   -6.3953712            0   -5.6301853   -1.4154073 
    1140   0.52401293   -6.4154467            0   -5.6309993   -1.5278322 
    1150   0.55347457   -6.4587375            0   -5.6301861   -1.7529494 
    1160   0.53582246   -6.4328053            0    -5.630679   -1.6471896 
    1170   0.53490849   -6.4314847            0   -5.6307267   -1.5965379 
    1180   0.52103558    -6.408959            0   -5.6289688   -1.4844962 
    1190   0.53615659   -6.4309107            0   -5.6282843    -1.583384 
    1200   0.54441532   -6.4436456            0   -5.6286559   -1.6444654 
    1210   0.54463632   -6.4442872            0   -5.6289666   -1.6322566 
    1220   0.53430213   -6.4290592            0   -5.6292089    -1.586926 
    1230    0.5335161   -6.4279423            0   -5.6292686   -1.5996122 
    1240    0.5231474      -6.4132            0   -5.6300483   -1.5299016 
    1250   0.54005047    -6.438681            0   -5.6302254   -1.6461022 
    1260   0.56266185   -6.4718933            0   -5.6295885   -1.7974571 
    1270   0.53986041   -6.4369184            0   -5.6287474   -1.6392149 
    1280   0.55113172   -6.4532997            0   -5.6282555   -1.7046688 
    1290    0.5460893   -6.4456124            0   -5.6281168   -1.6724072 
    1300   0.53952409   -6.4370627            0   -5.6293952   -1.6105879 
    1310   0.52944635   -6.4207727            0   -5.6281915   -1.5582309 
    1320   0.54095246   -6.4381578            0   -5.6283519   -1.6707142 
    1330   0.53860783   -6.4352327            0   -5.6289368   -1.6878999 
    1340   0.54776068   -6.4482094            0   -5.6282116   -1.7255028 
    1350    0.5375438   -6.4331393            0   -5.6284363   -1.6233258 
    1360   0.52272041   -6.4114677            0   -5.6289553   -1.5151251 
    1370   0.53524191   -6.4302169            0   -5.6289598   -1.6065058 
    1380   0.56730261    -6.477529            0    -5.628277   -1.8415508 
    1390   0.56839018   -6.4792704            0   -5.6283903   -1.8886631 
    1400   0.55068132   -6.4541412            0   -5.6297712   -1.7682655 
    1410   0.53582554   -6.4314729            0   -5.6293421   -1.6338191 
    1420   0.53530865   -6.4309965            0   -5.6296395    -1.595493 
    1430   0.51347037   -6.3981853            0   -5.6295202   -1.4361897 
    1440   0.52786469   -6.4196325            0   -5.6294191   -1.5357062 
    1450   0.54952693   -6.4520476            0   -5.6294058   -1.7012691 
    1460   0.52900927   -6.4224226            0   -5.6304957   -1.5977574 
    1470   0.52078073   -6.4105567            0    -5.630948   -1.5680848 
    1480   0.53972934   -6.4376622            0   -5.6296873   -1.6808089 
    1490   0.55066126   -6.4543516            0   -5.6300117   -1.7364362 
    1500   0.56081709   -6.4698649            0   -5.6303217   -1.7964219 
    1510   0.51556999   -6.4006613            0   -5.6288531   -1.5049851 
    1520   0.51593124    -6.402435            0   -5.6300859   -1.4849831 
    1530   0.51235375   -6.3964661            0   -5.6294725   -1.4524062 
    1540   0.52201815   -6.4100224            0   -5.6285613   -1.5180437 
    1550   0.54268797   -6.4403955            0   -5.6279916   -1.6644946 
    1560   0.55394742    -6.457268            0   -5.6280087   -1.7587052 
    1570   0.52611282   -6.4162385            0   -5.6286476   -1.5909141 
    1580   0.53299184   -6.4263481            0   -5.6284593   -1.6090861 
    1590   0.53134402   -6.4234058            0   -5.6279838   -1.5793231 
    1600   0.53839303   -6.4332821            0   -5.6273078   -1.6151557 
    1610   0.53280422   -6.4248562            0   -5.6272483    -1.595694 
    1620   0.54571196   -6.4441355            0   -5.6272047   -1.6947238 
    1630   0.55040146   -6.4519406            0   -5.6279896   -1.7458654 
    1640   0.55325273   -6.4568464            0   -5.6286271   -1.7522691 
    1650   0.53496087    -6.427504            0   -5.6266676   -1.6071173 
    1660   0.53662674   -6.4309585            0   -5.6276283    -1.613016 
    1670   0.53949394   -6.4363338            0   -5.6287114   -1.6394474 
    1680   0.53921252    -6.435194            0   -5.6279929   -1.6476847 
    1690   0.53987446   -6.4367146            0   -5.6285226   -1.6300886 
    1700   0.53282361    -6.426642            0    -5.629005   -1.5657114 
    1710   0.52972748   -6.4212278            0   -5.6282257   -1.5557218 
    1720   0.52728702   -6.4185009            0   -5.6291523   -1.5580636 
    1730   0.54519859   -6.4460601            0   -5.6298978   -1.6782564 
    1740   0.54312488   -6.4420607            0   -5.6290028   -1.6373688 
    1750   0.52252227   -6.4110123            0   -5.6287964   -1.4841561 
    1760   0.53525723   -6.4304565            0   -5.6291765   -1.5707975 
    1770   0.53837577   -6.4349521            0   -5.6290035    -1.598134 
    1780   0.51838096   -6.4051061            0   -5.6290898   -1.4611218 
    1790   0.52802818   -6.4192529            0   -5.6287947   -1.5341419 
    1800   0.56341632   -6.4721528            0   -5.6287186   -1.7849996 
    1810   0.54467371   -6.4440635            0    -5.628687   -1.6695713 
    1820   0.52163765   -6.4087982            0   -5.6279066    -1.517881 
    1830   0.53481415   -6.4280615            0   -5.6274447    -1.598532 
    1840   0.54454506   -6.4440778            0   -5.6288939      -1.6779 
    1850   0.54870933   -6.4496161            0   -5.6281982   -1.7151745 
    1860   0.54413855   -6.4429589            0   -5.6283835    -1.682661 
    1870   0.54069917   -6.4370767            0     -5.62765   -1.6569195 
    1880   0.54260451   -6.4415616            0   -5.6292826    -1.657014 
    1890   0.53863606    -6.435261            0   -5.6289228   -1.6233648 
    1900   0.52139751   -6.4087315            0   -5.6281994   -1.5147249 
    1910   0.51795363   -6.4047274            0   -5.6293509   -1.5033119 
    1920   0.51347781   -6.3993448            0   -5.6306685   -1.4744175 
    1930   0.52421042   -6.4140684            0   -5.6293254   -1.5431222 
    1940   0.54224743   -6.4394771            0   -5.6277327   -1.6692036 
    1950    0.5480473   -6.4478678            0    -5.627441   -1.7153941 
    1960   0.53862845   -6.4344965            0   -5.6281697   -1.6760475 
    1970   0.53646348   -6.4317683            0   -5.6286825   -1.6930556 
    1980   0.56711607   -6.4773769            0   -5.6284041   -1.8704722 
    1990   0.54336534    -6.442156            0    -5.628738    -1.711808 
    2000   0.55174077   -6.4548103            0   -5.6288543   -1.7530186 
    2010   0.52956532   -6.4211379            0   -5.6283787   -1.6150584 
    2020    0.5446527   -6.4439564            0   -5.6286113   -1.6965038 
    2030   0.54704424   -6.4476485            0   -5.6287232   -1.7114285 
    2040   0.54580486   -6.4451859            0    -5.628116   -1.7072114 
    2050   0.53398028   -6.4276845            0   -5.6283161   -1.6119808 
    2060   0.51148733   -6.3950431            0   -5.6293465   -1.4291346 
    2070   0.51399839   -6.3993826            0    -5.629927   -1.4328351 
    2080   0.55153284    -6.454594            0   -5.6289493   -1.7012995 
    2090   0.55285349   -6.4581633            0   -5.6305416   -1.7368755 
    2100   0.52289097   -6.4132873            0   -5.6305195   -1.5547885 
    2110   0.54036723    -6.438416            0   -5.6294862   -1.6784351 
    2120   0.55055463   -6.4526384            0   -5.6284581   -1.7289778 
    2130   0.52621572   -6.4157193            0   -5.6279743   -1.5461996 
    2140   0.52857468   -6.4185112            0   -5.6272349   -1.5696203 
    2150   0.54908927   -6.4505556            0   -5.6285689   -1.7041818 
    2160   0.52733252    -6.419101            0   -5.6296842   -1.5845397 
    2170   0.54180073   -6.4395928            0   -5.6285171   -1.6882705 
    2180   0.55217843   -6.4543951            0    -5.627784   -1.7264645 
    2190   0.54299197   -6.4419005            0   -5.6290415   -1.6509388 
    2200   0.53663033   -6.4327036            0    -5.629368   -1.6215055 
    2210   0.54095113    -6.439854            0   -5.6300501   -1.6510316 
    2220   0.53968728   -6.4381089            0    -5.630197   -1.6302893 
    2230   0.54386942   -6.4429638            0   -5.6287913   -1.6405447 
    2240   0.53870516   -6.4353419            0   -5.6289003   -1.6011881 
    2250   0.54358731    -6.443842            0   -5.6300918   -1.6367817 
    2260   0.54268706   -6.4417016            0   -5.6292991   -1.6529133 
    2270   0.53286007   -6.4255854            0   -5.6278938   -1.6210183 
    2280   0.54845539   -6.4489736            0   -5.6279359   -1.7079257 
    2290   0.54115666   -6.4382165            0    -5.628105   -1.6481864 
    2300   0.52875519   -6.4201678            0   -5.6286212   -1.5864759 
    2310   0.54628814    -6.445875            0   -5.6280816   -1.7080716 
    2320   0.55109662   -6.4525317            0   -5.6275401   -1.7311485 
    2330   0.53945716   -6.4350158            0   -5.6274484    -1.614568 
    2340   0.52962934   -6.4199466            0   -5.6270915   -1.5183261 
    2350   0.52737087   -6.4175918            0   -5.6281176   -1.4837083 
    2360    0.5142489   -6.3985518            0   -5.6287212   -1.4237572 
    2370   0.54464319   -6.4430386            0   -5.6277078    -1.654743 
    2380   0.55405844   -6.4557462            0   -5.6263207   -1.7372904 
    2390   0.55481026   -6.4571984            0   -5.6266475    -1.720422 
    2400   0.53109989   -6.4233615            0    -5.628305   -1.5426265 
    2410   0.54710845   -6.4475989            0   -5.6285776    -1.637942 
    2420   0.52617642   -6.4157944            0   -5.6281083    -1.540473 
    2430   0.52832338   -6.4187813            0   -5.6278812   -1.5966381 
    2440   0.55138922   -6.4538501            0   -5.6284205   -1.7831648 
    2450   0.55309785   -6.4565591            0   -5.6285716   -1.7884518 
    2460   0.54120968   -6.4376762            0   -5.6274853   -1.6568264 
    2470   0.54375287   -6.4412055            0   -5.6272075   -1.6488743 
    2480    0.5465686     -6.44501            0   -5.6267968   -1.6848479 
    2490   0.53707575    -6.431158            0   -5.6271556   -1.6207495 
    2500   0.53908331   -6.4352812            0   -5.6282735    -1.623063 
    2510   0.54679283   -6.4464616            0   -5.6279127   -1.6767409 
    2520   0.54669972   -6.4448251            0   -5.6264157   -1.6676228 
    2530   0.52551484   -6.4143652            0   -5.6276695   -1.4882717 
    2540   0.49519496   -6.3686404            0   -5.6273336   -1.2819778 
    2550   0.54435179   -6.4422521            0   -5.6273575   -1.6636136 
    2560   0.56989786    -6.480821            0   -5.6276839   -1.9019844 
    2570   0.57866592   -6.4938105            0   -5.6275477   -1.9527324 
    2580    0.5609261     -6.46641            0   -5.6267036   -1.8164459 
    2590   0.53983602   -6.4338779            0   -5.6257434   -1.6554386 
    2600   0.53910801    -6.434789            0   -5.6277443   -1.6373193 
    2610   0.52386992   -6.4132496            0   -5.6290163   -1.5452218 
    2620   0.53319721   -6.4273083            0    -5.629112   -1.5967492 
    2630   0.52984692   -6.4219997            0   -5.6288189   -1.5729112 
    2640   0.54512169   -6.4442156            0   -5.6281685   -1.6618251 
    2650   0.54630149   -6.4464103            0    -5.628597   -1.6735932 
    2660    0.5312194   -6.4251014            0    -5.629866   -1.5749916 
    2670   0.52887704   -6.4210542            0   -5.6293252   -1.5534342 
    2680   0.55228006   -6.4563068            0   -5.6295435     -1.70453 
    2690   0.54601087   -6.4463552            0   -5.6289769   -1.6775805 
    2700   0.52548475   -6.4168028            0   -5.6301521   -1.5406713 
    2710   0.52869113   -6.4210965            0   -5.6296459   -1.5799066 
    2720   0.54282506    -6.443906            0   -5.6312969   -1.6961742 
    2730   0.53328743    -6.429161            0   -5.6308297   -1.6226311 
    2740   0.53336943   -6.4282821            0   -5.6298281   -1.6009018 
    2750   0.52223255   -6.4104171            0    -5.628635    -1.522625 
    2760   0.53111358   -6.4232011            0   -5.6281241   -1.5921672 
    2770   0.53288714   -6.4257217            0   -5.6279897   -1.6178865 
    2780   0.52479866   -6.4147804            0   -5.6291568   -1.5837556 
    2790   0.53286897   -6.4276258            0    -5.629921    -1.638358 
    2800    0.5441896   -6.4445621            0   -5.6299103   -1.6827172 
    2810   0.52694765   -6.4179764            0   -5.6291358   -1.5445236 
    2820   0.54887388    -6.450174            0   -5.6285099    -1.699175 
    2830   0.56296375   -6.4710652            0   -5.6283085   -1.8351647 
    2840   0.54088973   -6.4378595            0   -5.6281476   -1.6923092 
    2850   0.53865069   -6.4341602            0   -5.6278001   -1.6463227 
    2860    0.5260757    -6.415027            0   -5.6274917   -1.5555202 
    2870   0.54946882   -6.4500257            0   -5.6274709    -1.703861 
    2880   0.55974289   -6.4662872            0   -5.6283521    -1.788064 
    2890   0.56123446   -6.4686256            0   -5.6284576   -1.7867677 
    2900   0.53920188     -6.43577            0   -5.6285848   -1.6265727 
    2910   0.52500248   -6.4135136            0   -5.6275849   -1.5271962 
    2920   0.52446217    -6.412944            0   -5.6278242   -1.5334437 
    2930   0.53245288   -6.4247441            0   -5.6276621    -1.578745 
    2940   0.53479329   -6.4290657            0   -5.6284801   -1.5926882 
    2950   0.53017419   -6.4219703            0   -5.6282995   -1.5748745 
    2960   0.54367004   -6.4420884            0   -5.6282144   -1.6402945 
    2970   0.53836302   -6.4350792            0   -5.6291498   -1.5710305 
    2980   0.51236881   -6.3945959            0   -5.6275797   -1.4094439 
    2990   0.53276346   -6.4255546            0   -5.6280077   -1.5726621 
    3000   0.54758761   -6.4484502            0   -5.6287116   -1.6937773 
    3010   0.53059815   -6.4232134            0   -5.6289079   -1.5853193 
    3020    0.5237779   -6.4132949            0   -5.6291993   -1.5453613 
    3030   0.54912042   -6.4497972            0   -5.6277639   -1.7153958 
    3040   0.56005055   -6.4661515            0   -5.6277558   -1.7954969 
    3050   0.56051614   -6.4667263            0   -5.6276336   -1.8096689 
    3060   0.55213763   -6.4542731            0   -5.6277231    -1.740207 
    3070   0.53130816    -6.423575            0   -5.6282066   -1.5886516 
    3080   0.54739893    -6.446812            0   -5.6273558   -1.6846456 
    3090   0.54845276   -6.4486663            0   -5.6276325   -1.6798923 
    3100   0.53933949   -6.4353157            0   -5.6279245   -1.6076214 
    3110   0.54135364    -6.437925            0   -5.6275186   -1.6190562 
    3120   0.53228742   -6.4236177            0   -5.6267834   -1.5546178 
    3130   0.51317331   -6.3959486            0   -5.6277281   -1.4459878 
    3140   0.54589841   -6.4457357            0   -5.6285258   -1.6520641 
    3150   0.53079131   -6.4215206            0    -5.626926   -1.5609668 
    3160   0.53255575   -6.4245873            0   -5.6273514   -1.5589004 
    3170   0.54143731   -6.4403651            0   -5.6298335   -1.6379693 
    3180   0.56337546   -6.4732735            0   -5.6299004    -1.806154 
    3190     0.545389   -6.4453994            0   -5.6289521   -1.6959663 
    3200   0.53412048   -6.4301187            0   -5.6305403   -1.6247767 
    3210    0.5308689     -6.42467            0   -5.6299593   -1.6062926 
    3220     0.530979   -6.4244863            0   -5.6296108   -1.6038899 
    3230   0.52619374   -6.4169355            0   -5.6292235   -1.5573428 
    3240    0.5345262   -6.4290657            0     -5.62888   -1.5805161 
    3250   0.55630875   -6.4607014            0   -5.6279072    -1.712039 
    3260   0.53702209   -6.4314204            0   -5.6274984   -1.6127643 
    3270   0.53848144   -6.4345699            0   -5.6284632    -1.627384 
    3280   0.53638528   -6.4312662            0   -5.6282974     -1.58874 
    3290   0.51993504   -6.4066819            0   -5.6283392   -1.4692098 
    3300   0.53286212   -6.4263474            0   -5.6286528   -1.5821655 
    3310    0.5270515   -6.4182205            0   -5.6292244   -1.5772087 
    3320   0.55028009   -6.4526595            0   -5.6288902    -1.700205 
    3330   0.53488999   -6.4296428            0   -5.6289125    -1.572255 
    3340   0.51901524   -6.4053432            0   -5.6283774   -1.4729928 
    3350   0.53532191   -6.4306275            0   -5.6292506   -1.6186641 
    3360   0.56464527   -6.4748575            0   -5.6295836    -1.820726 
    3370   0.55426796   -6.4577399            0   -5.6280007   -1.7492908 
    3380   0.56073139   -6.4682488            0   -5.6288339    -1.805254 
    3390   0.54484822   -6.4438802            0   -5.6282424   -1.7221147 
    3400   0.52386824   -6.4131697            0   -5.6289389   -1.5682861 
    3410    0.5216043   -6.4107269            0   -5.6298852   -1.5407162 
    3420   0.54439311   -6.4439535            0    -5.628997   -1.6680512 
    3430     0.538334   -6.4344088            0   -5.6285228   -1.6153211 
    3440    0.5267535   -6.4168876            0   -5.6283376   -1.5505732 
    3450   0.52401955   -6.4140558            0   -5.6295986   -1.5578115 
    3460   0.53965318   -6.4367244            0   -5.6288636   -1.6620866 
    3470   0.51749596   -6.4029907            0   -5.6282992   -1.5324418 
    3480   0.54164799   -6.4377517            0   -5.6269047   -1.6939397 
    3490   0.54625316   -6.4448015            0   -5.6270605   -1.7347311 
    3500   0.54436665   -6.4413298            0   -5.6264129   -1.7088354 
    3510   0.55815519   -6.4625663            0    -5.627008   -1.7640102 
    3520   0.53843333   -6.4326122            0   -5.6265775   -1.6198413 
    3530   0.55102823   -6.4519393            0     -5.62705   -1.6853629 
    3540   0.54427806   -6.4410062            0    -5.626222   -1.6240068 
    3550   0.50700687   -6.3849746            0   -5.6259853   -1.3758112 
    3560   0.51134456   -6.3921386            0   -5.6266558   -1.4245359 
    3570   0.53536821   -6.4279436            0   -5.6264974     -1.60108 
    3580   0.54161563   -6.4371754            0   -5.6263768   -1.6365674 
    3590    0.5422546   -6.4388511            0   -5.6270959   -1.6416064 
    3600   0.55750965   -6.4622463            0   -5.6276543   -1.7589988 
    3610     0.544049   -6.4427665            0   -5.6283252    -1.685007 
    3620   0.54482964   -6.4439671            0   -5.6283571   -1.7018221 
    3630   0.55355093   -6.4585277            0    -5.629862   -1.7868928 
    3640   0.53936006   -6.4359784            0   -5.6285564   -1.6947409 
    3650   0.53857182   -6.4348627            0   -5.6286207   -1.6648387 
    3660   0.53677082   -6.4314057            0   -5.6278598   -1.6257191 
    3670   0.52485021   -6.4145999            0   -5.6288992   -1.5573317 
    3680   0.53036611   -6.4233086            0   -5.6293506    -1.603762 
    3690   0.54481222   -6.4441533            0   -5.6285694   -1.7008916 
    3700   0.54476613   -6.4450176            0   -5.6295027   -1.6961932 
    3710   0.53683915   -6.4316606            0   -5.6280124   -1.6148414 
    3720   0.53983794   -6.4363029            0   -5.6281655   -1.6110639 
    3730    0.5386315     -6.43438            0   -5.6280486   -1.6250224 
    3740   0.54491512   -6.4428199            0   -5.6270819   -1.6926055 
    3750   0.55683173   -6.4600369            0   -5.6264598   -1.7808245 
    3760   0.51437878   -6.3962014            0   -5.6261764    -1.496657 
    3770    0.5289992   -6.4185617            0   -5.6266499   -1.5738136 
    3780   0.55748661    -6.461122            0   -5.6265646   -1.7568161 
    3790   0.53398262   -6.4261727            0   -5.6268007   -1.6106877 
    3800   0.53928382   -6.4341089            0    -5.626801    -1.665369 
    3810   0.55619086   -6.4596075            0   -5.6269898   -1.7817224 
    3820    0.5351429    -6.429074            0    -5.627965   -1.6170265 
    3830   0.52638306   -6.4166427            0   -5.6286473    -1.553688 
    3840   0.54766119   -6.4489638            0    -5.629115   -1.6963758 
    3850   0.52512357   -6.4144123            0   -5.6283023   -1.5782349 
    3860   0.55510283    -6.459833            0   -5.6288441   -1.7754524 
    3870   0.54147322   -6.4383009            0   -5.6277155   -1.6771651 
    3880   0.53410019   -6.4266365            0   -5.6270885   -1.6000714 
    3890   0.53042105   -6.4227235            0   -5.6286832    -1.574859 
    3900   0.53071554   -6.4232357            0   -5.6287545   -1.5857256 
    3910   0.51761641   -6.4042309            0   -5.6293591   -1.5184356 
    3920   0.53694328   -6.4337155            0   -5.6299114   -1.6417989 
    3930    0.5260479   -6.4165409            0   -5.6290472   -1.5556004 
    3940   0.51655672   -6.4013794            0    -5.628094   -1.4897346 
    3950   0.53706785    -6.432928            0   -5.6289374   -1.6512028 
    3960   0.54520996   -6.4453493            0     -5.62917    -1.736957 
    3970   0.53491483   -6.4303199            0   -5.6295524   -1.6762733 
    3980   0.53747129   -6.4344984            0   -5.6299039   -1.6877785 
    3990    0.5368156   -6.4326394            0   -5.6290264   -1.6622256 
    4000   0.53977189   -6.4375613            0   -5.6295227   -1.6652313 
    4010   0.54682128     -6.44774            0   -5.6291486   -1.6885058 
    4020   0.52383142   -6.4128559            0   -5.6286802   -1.5207015 
    4030   0.52737643   -6.4180838            0   -5.6286013   -1.5608535 
    4040   0.55698221    -6.462536            0   -5.6287336   -1.7705215 
    4050   0.55770349    -6.463056            0   -5.6281739   -1.7743186 
    4060   0.53491957   -6.4298162            0   -5.6290416   -1.6154468 
    4070   0.52191198   -6.4101472            0   -5.6288449   -1.5384949 
    4080   0.54881687   -6.4482114            0   -5.6266326   -1.7180026 
    4090   0.54095789   -6.4367455            0   -5.6269315   -1.6886298 
    4100   0.56392865   -6.4719141            0   -5.6277129   -1.8251561 
    4110   0.54084178   -6.4380034            0   -5.6283632   -1.6829571 
    4120    0.5584787    -6.465012            0   -5.6289694   -1.7719398 
    4130   0.53742762   -6.4336645            0   -5.6291353   -1.6136054 
    4140   0.52201971    -6.410563            0   -5.6290995   -1.5158504 
    4150   0.52654954   -6.4171046            0     -5.62886   -1.5781069 
    4160   0.54857822   -6.4499904            0   -5.6287688   -1.7295258 
    4170   0.54283049   -6.4418116            0   -5.6291943   -1.6881436 
    4180   0.51179128   -6.3962113            0   -5.6300598   -1.4488769 
    4190    0.5183989    -6.406318            0   -5.6302749   -1.4719159 
    4200   0.53811829   -6.4351463            0   -5.6295832   -1.6318587 
    4210   0.53020005   -6.4231254            0   -5.6294159   -1.6069884 
    4220   0.52135053   -6.4102491            0   -5.6297874   -1.5327034 
    4230   0.52485483   -6.4144922            0   -5.6287846   -1.5320059 
    4240   0.54553381   -6.4447445            0   -5.6280803   -1.6565088 
    4250   0.53758817   -6.4330751            0   -5.6283056   -1.6273612 
    4260   0.55320976   -6.4561938            0   -5.6280388   -1.7370403 
    4270   0.53646056   -6.4304753            0   -5.6273938   -1.6292924 
    4280   0.52638503   -6.4164002            0   -5.6284019   -1.5434712 
    4290   0.52998722   -6.4208063            0   -5.6274154   -1.5632057 
    4300   0.55364168   -6.4572328            0   -5.6284312   -1.7299222 
    4310   0.54657574   -6.4469681            0   -5.6287442   -1.6795044 
    4320   0.53481881   -6.4290992            0   -5.6284755   -1.5834386 
    4330   0.53298473   -6.4256037            0   -5.6277256    -1.570397 
    4340   0.51044479   -6.3908546            0   -5.6267188   -1.4440741 
    4350   0.53175742   -6.4240157            0   -5.6279749   -1.6051013 
    4360   0.54857001   -6.4498123            0    -5.628603   -1.7242169 
    4370   0.53936692   -6.4358216            0   -5.6283893   -1.6830018 
    4380   0.57000523   -6.4811507            0   -5.6278528   -1.8561639 
    4390   0.52121804   -6.4097392            0   -5.6294758   -1.5158932 
    4400   0.51458943   -6.3998908            0   -5.6295504    -1.436548 
    4410   0.49561037   -6.3710005            0   -5.6290718   -1.3330779 
    4420   0.51101108   -6.3938101            0   -5.6288266   -1.4965272 
    4430   0.56616336   -6.4766832            0   -5.6291366   -1.8899741 
    4440   0.56914931   -6.4796893            0   -5.6276728   -1.8926287 
    4450   0.55968636   -6.4645398            0   -5.6266893   -1.8015029 
    4460   0.56766002   -6.4780654            0   -5.6282783   -1.8318957 
    4470   0.51688461   -6.4017792            0   -5.6280029    -1.490031 
    4480   0.51284394   -6.3957108            0   -5.6279835   -1.4786789 
    4490   0.54703161   -6.4473742            0   -5.6284679   -1.7240141 
    4500   0.52235103   -6.4114433            0   -5.6294838   -1.5574893 
    4510   0.54698903   -6.4478192            0   -5.6289766   -1.6883753 
    4520   0.53361623   -6.4268606            0   -5.6280371   -1.6109355 
    4530   0.54277743   -6.4401528            0    -5.627615   -1.6666216 
    4540   0.54019345   -6.4367668            0   -5.6280972   -1.6630702 
    4550   0.55102909   -6.4524446            0   -5.6275541    -1.741572 
    4560   0.54982605   -6.4503746            0    -5.627285   -1.7295742 
    4570   0.53397483   -6.4267399            0   -5.6273796   -1.6098229 
    4580   0.53461427   -6.4275421            0   -5.6272246    -1.617542 
    4590   0.54793057   -6.4463312            0   -5.6260791   -1.6952622 
    4600   0.53812395    -6.431398            0   -5.6258264   -1.6246269 
    4610    0.5458478   -6.4427286            0   -5.6255944    -1.666148 
    4620   0.52565019   -6.4120171            0   -5.6251188   -1.5442501 
    4630   0.54295448   -6.4385644            0   -5.6257616   -1.6803404 
    4640    0.5357061   -6.4285282            0   -5.6265762   -1.6330722 
    4650   0.54084319   -6.4369635            0   -5.6273212   -1.6477396 
    4660   0.58147394   -6.4976638            0   -5.6271973   -1.9201473 
    4670   0.54775217   -6.4473099            0   -5.6273249   -1.7150796 
    4680    0.5269095   -6.4149136            0   -5.6261301   -1.5647224 
    4690   0.53573497   -6.4280293            0   -5.6260341   -1.6134502 
    4700   0.53027634     -6.42187            0   -5.6280463   -1.5854272 
    4710   0.53988556   -6.4361854            0   -5.6279768   -1.6456144 
    4720   0.54673067   -6.4474245            0   -5.6289687   -1.7131466 
    4730   0.55093359    -6.452492            0   -5.6277444   -1.7323239 
    4740   0.53519444   -6.4287689            0   -5.6275828   -1.6179915 
    4750   0.54193119   -6.4385894            0   -5.6273184   -1.6392654 
    4760   0.52834726   -6.4186248            0    -5.627689   -1.5438578 
    4770    0.5492528   -6.4494801            0   -5.6272486   -1.7022807 
    4780   0.54919257    -6.450574            0   -5.6284327   -1.7638321 
    4790   0.53868746   -6.4355126            0   -5.6290975   -1.6935426 
    4800   0.51269673   -6.3964467            0   -5.6289397   -1.4779138 
    4810   0.51525731   -6.3985457            0   -5.6272055   -1.4644645 
    4820   0.55180136   -6.4531176            0    -5.627071   -1.6992572 
    4830   0.54701934   -6.4465998            0   -5.6277118   -1.6786548 
    4840   0.52964209   -6.4210218            0   -5.6281476    -1.583298 
    4850   0.54425294   -6.4429073            0   -5.6281607   -1.6923168 
    4860   0.56040313   -6.4670142            0   -5.6280907   -1.7983801 
    4870   0.55621954   -6.4601442            0   -5.6274836   -1.7539593 
    4880   0.53126806   -6.4226983            0   -5.6273901   -1.5677172 
    4890   0.54012407   -6.4370526            0   -5.6284869   -1.6064442 
    4900   0.52199191   -6.4108149            0   -5.6293931   -1.5057366 
    4910   0.53515503   -6.4319025            0   -5.6307754    -1.604583 
    4920   0.51683325   -6.4036361            0   -5.6299367   -1.5061939 
    4930   0.52214373   -6.4126599            0   -5.6310107   -1.5559843 
    4940   0.53289864   -6.4276498            0   -5.6299005   -1.6384462 
    4950   0.53994838   -6.4381467            0    -5.629844   -1.6822148 
    4960   0.55465666   -6.4587567            0   -5.6284357   -1.7608243 
    4970   0.52431895     -6.41376            0   -5.6288545   -1.5675604 
    4980   0.54073939   -6.4380919            0    -5.628605   -1.6543941 
    4990   0.54020886   -6.4369417            0   -5.6282491   -1.6555189 
    5000   0.52926396   -6.4206617            0   -5.6283536   -1.6006522 
    5010   0.54844106    -6.448986            0   -5.6279697   -1.7268248 
    5020   0.56449743   -6.4728215            0   -5.6277688   -1.8129535 
    5030   0.54436227   -6.4439215            0   -5.6290112   -1.6701181 
    5040   0.53173385   -6.4240353            0   -5.6280297   -1.5854206 
    5050   0.54241921   -6.4411323            0   -5.6291307   -1.6541403 
    5060   0.54401405   -6.4435605            0   -5.6291714    -1.686483 
    5070   0.55460489   -6.4599949            0   -5.6297514   -1.7530958 
    5080    0.5149868   -6.4002007            0   -5.6292655   -1.4672909 
    5090   0.50884392   -6.3908995            0   -5.6291601   -1.4394855 
    5100   0.54417542   -6.4428664            0   -5.6282358   -1.6914668 
    5110   0.53193278   -6.4250639            0   -5.6287606   -1.6174627 
    5120   0.53989241   -6.4373313            0   -5.6291124   -1.6754554 
    5130   0.56229838   -6.4692229            0   -5.6274622   -1.8460407 
    5140   0.55629283   -6.4614062            0   -5.6286358   -1.8076787 
    5150   0.52362201   -6.4115394            0   -5.6276772   -1.5616872 
    5160   0.53242385   -6.4253035            0    -5.628265     -1.60768 
    5170    0.5548942   -6.4599852            0   -5.6293086   -1.7682629 
    5180   0.51761211   -6.4036799            0   -5.6288146   -1.5253437 
    5190   0.53114719   -6.4228476            0   -5.6277203   -1.5871811 
    5200   0.55568409   -6.4598505            0   -5.6279914   -1.7456498 
    5210     0.551344   -6.4539614            0   -5.6285994    -1.716683 
    5220   0.53084977   -6.4227828            0   -5.6281007   -1.5722119 
    5230   0.52543238   -6.4144397            0   -5.6278674   -1.5415746 
    5240   0.54604837   -6.4452868            0   -5.6278524   -1.6762751 
    5250   0.51213287   -6.3937316            0   -5.6270687   -1.4515929 
    5260   0.52864676   -6.4175437            0   -5.6261595   -1.5406102 
    5270   0.55248742   -6.4549041            0   -5.6278304   -1.7165348 
    5280   0.55715856   -6.4623076            0   -5.6282412   -1.7377004 
    5290   0.52217754   -6.4106964            0   -5.6289967   -1.4792544 
    5300   0.51663995   -6.4025364            0   -5.6291264   -1.4589199 
    5310   0.54439947   -6.4435903            0   -5.6286242   -1.6693619 
    5320   0.53379392   -6.4271175            0    -5.628028   -1.6239474 
    5330   0.55739885   -6.4626255            0   -5.6281994   -1.7461543 
    5340   0.52310599   -6.4116885            0   -5.6285989   -1.5199008 
    5350    0.5457549   -6.4449655            0   -5.6279704   -1.6801818 
    5360   0.55081813   -6.4536067            0    -5.629032    -1.732074 
    5370   0.53243032    -6.426487            0   -5.6294388   -1.5986627 
    5380   0.53978361   -6.4376427            0   -5.6295866   -1.6361891 
    5390   0.54032536   -6.4372963            0   -5.6284292    -1.668918 
    5400   0.55446329   -6.4577066            0   -5.6276751   -1.7643569 
    5410   0.54296993   -6.4425451            0   -5.6297191   -1.6849228 
    5420   0.52274785   -6.4118793            0   -5.6293257   -1.5407384 
    5430   0.52819098   -6.4200611            0   -5.6293592   -1.5382268 
    5440   0.50436407   -6.3850663            0   -5.6300333   -1.3722244 
    5450   0.52302134    -6.412208            0   -5.6292451    -1.493385 
    5460       0.5389   -6.4364904            0   -5.6297571   -1.6207542 
    5470   0.53051782   -6.4226837            0   -5.6284985   -1.6078741 
    5480   0.56595079   -6.4745274            0    -5.627299   -1.8414383 
    5490   0.54909051   -6.4501429            0   -5.6281544   -1.7329492 
    5500   0.53614044   -6.4313955            0   -5.6287933   -1.6360893 
    5510   0.54809477   -6.4492272            0   -5.6287293   -1.7109071 
    5520   0.54414115   -6.4431033            0    -5.628524   -1.6985843 
    5530   0.54766616   -6.4491423            0    -5.629286    -1.723521 
    5540    0.5477316   -6.4496293            0   -5.6296751   -1.7048112 
    5550   0.53314635   -6.4283212            0   -5.6302011   -1.5986366 
    5560   0.52779121   -6.4207318            0   -5.6306283   -1.5718416 
    5570   0.51846266   -6.4064998            0   -5.6303612   -1.5338115 
    5580   0.54791387   -6.4496396            0   -5.6294125   -1.7182397 
    5590   0.52334556   -6.4126427            0   -5.6291944   -1.5607174 
    5600   0.54715322   -6.4486969            0   -5.6296085   -1.7018606 
    5610   0.55460917   -6.4579673            0   -5.6277174   -1.7489811 
    5620   0.54259785   -6.4411976            0   -5.6289286   -1.6778703 
    5630   0.54633142   -6.4471605            0   -5.6293023   -1.6875039 
    5640   0.53318117   -6.4282622            0     -5.63009     -1.55908 
    5650   0.52129212   -6.4109701            0   -5.6305958   -1.4543925 
    5660   0.54147098   -6.4407841            0    -5.630202   -1.6379573 
    5670   0.55431857   -6.4600464            0   -5.6302315   -1.7837013 
    5680   0.52448427   -6.4157697            0   -5.6306168   -1.6215077 
    5690   0.53292102   -6.4281955            0   -5.6304127    -1.670808 
    5700   0.54399456   -6.4458265            0   -5.6314666   -1.7263811 
    5710   0.53090175   -6.4255746            0   -5.6308146   -1.6317843 
    5720   0.53818189    -6.436768            0   -5.6311097   -1.6672588 
    5730   0.53336852   -6.4289589            0   -5.6305062   -1.6186065 
    5740   0.54173304   -6.4418145            0   -5.6308402   -1.6820302 
    5750   0.54599343   -6.4483625            0   -5.6310103   -1.7445608 
    5760   0.55818524   -6.4660429            0   -5.6304396   -1.8056612 
    5770   0.51181456   -6.3968433            0   -5.6306569   -1.4844273 
    5780   0.52568865   -6.4168673            0   -5.6299114   -1.5614718 
    5790   0.53569096   -6.4319648            0   -5.6300355   -1.6569465 
    5800   0.53253263   -6.4273332            0   -5.6301319   -1.6266423 
    5810   0.51242448   -6.3974811            0   -5.6303817     -1.47459 
    5820   0.54541745   -6.4459857            0   -5.6294958   -1.6760275 
    5830   0.56892777   -6.4795447            0   -5.6278598   -1.8274841 
    5840    0.5537193     -6.45647            0   -5.6275522   -1.7393801 
    5850    0.5512511   -6.4533939            0    -5.628171   -1.7209662 
    5860   0.53094212   -6.4238083            0    -5.628988   -1.5900409 
    5870   0.53468325   -6.4290396            0   -5.6286188   -1.6101581 
    5880    0.5400945   -6.4372446            0   -5.6287232   -1.6308127 
    5890    0.5453116    -6.446124            0   -5.6297925   -1.6602758 
    5900   0.54608399    -6.448223            0   -5.6307352   -1.6696779 
    5910   0.53469783   -6.4309184            0   -5.6304758   -1.5897505 
    5920   0.51453715     -6.40029            0   -5.6300279   -1.4534927 
    5930   0.53041349   -6.4235179            0   -5.6294889   -1.5339161 
    5940   0.52232771   -6.4111458            0   -5.6292213   -1.4977264 
    5950   0.54268731   -6.4423916            0   -5.6299887   -1.6468963 
    5960   0.54354619   -6.4437546            0   -5.6300659   -1.6642568 
    5970   0.52785539   -6.4195965            0    -5.629397   -1.5885975 
    5980   0.55463492   -6.4598944            0   -5.6296059   -1.7669635 
    5990   0.53873193   -6.4368657            0    -5.630384   -1.6640884 
    6000    0.5284745   -6.4205733            0    -5.629447   -1.5911278 
    6010   0.53923816   -6.4366165            0    -5.629377   -1.6531334 
    6020     0.538535   -6.4358408            0   -5.6296539   -1.6435001 
    6030   0.53911533   -6.4376801            0   -5.6306244   -1.6368444 
    6040   0.53727754   -6.4342693            0   -5.6299649   -1.6401055 
    6050   0.54390744   -6.4454647            0   -5.6312353    -1.699006 
    6060   0.52277611   -6.4134931            0   -5.6308973   -1.5400013 
    6070   0.52111609     -6.41022            0   -5.6301092   -1.4988916 
    6080   0.53052314   -6.4230266            0   -5.6288335   -1.5737694 
    6090   0.55053863   -6.4530168            0   -5.6288604   -1.7392815 
    6100   0.55084648   -6.4542426            0   -5.6296254   -1.7335457 
    6110   0.51674755    -6.402707            0    -5.629136   -1.4896034 
    6120   0.53351608   -6.4283854            0   -5.6297119   -1.5818417 
    6130    0.5354638   -6.4304925            0   -5.6289032   -1.5912989 
    6140    0.5473617   -6.4471842            0   -5.6277837   -1.6665412 
    6150   0.54552819   -6.4438178            0   -5.6271621   -1.6821743 
    6160   0.55505784    -6.458604            0   -5.6276825    -1.749809 
    6170   0.52768276   -6.4169829            0   -5.6270418   -1.5859187 
    6180   0.55179984    -6.452873            0   -5.6268287   -1.7680749 
    6190   0.55666945   -6.4592276            0   -5.6258934   -1.8256604 
    6200   0.54733879   -6.4466095            0   -5.6272433   -1.7440349 
    6210   0.52961728   -6.4217133            0   -5.6288762   -1.6164147 
    6220   0.52596929   -6.4164311            0   -5.6290551   -1.5948073 
    6230   0.54443573   -6.4435651            0   -5.6285448   -1.7162674 
    6240    0.5356545   -6.4304995            0   -5.6286247   -1.6573015 
    6250   0.54507782   -6.4458171            0   -5.6298356    -1.713541 
    6260   0.54752919   -6.4489449            0   -5.6292937   -1.7579938 
    6270   0.55163511    -6.454893            0   -5.6290953   -1.7740532 
    6280   0.50709015   -6.3882934            0   -5.6291795   -1.4622483 
    6290   0.52013437   -6.4086931            0   -5.6300519    -1.530079 
    6300   0.54226669   -6.4405508            0   -5.6287775   -1.6510222 
    6310   0.52403376   -6.4133443            0   -5.6288657   -1.5286046 
    6320   0.53729112   -6.4331069            0   -5.6287821   -1.6240106 
    6330   0.53398438   -6.4274899            0   -5.6281153   -1.6147741 
    6340   0.53192502   -6.4247252            0   -5.6284335    -1.582427 
    6350   0.52900377    -6.421165            0   -5.6292464   -1.5556662 
    6360   0.53277587   -6.4261854            0     -5.62862    -1.567216 
    6370   0.52962265   -6.4218878            0   -5.6290427   -1.5447888 
    6380   0.53421647   -6.4281865            0   -5.6284644    -1.590471 
    6390   0.56220007    -6.471161            0   -5.6295475   -1.7888573 
    6400   0.54756825   -6.4493488            0   -5.6296392   -1.7077377 
    6410   0.52650396   -6.4177759            0   -5.6295995   -1.5614767 
    6420   0.53448448   -6.4296887            0   -5.6295655   -1.5827342 
    6430   0.51604463   -6.4014716            0   -5.6289528    -1.451817 
    6440   0.53023037   -6.4235282            0   -5.6297734   -1.5559894 
    6450   0.54508395   -6.4464157            0    -5.630425    -1.687955 
    6460   0.54058814   -6.4388524            0    -5.629592   -1.6748135 
    6470   0.55273235   -6.4574318            0   -5.6299915   -1.7247553 
    6480   0.54127118   -6.4389746            0   -5.6286916   -1.6278737 
    6490   0.53829049   -6.4348209            0   -5.6290001   -1.5997958 
    6500   0.52902437   -6.4214676            0   -5.6295181   -1.5484454 
    6510   0.54971878   -6.4522248            0   -5.6292958   -1.6897837 
    6520   0.54187257   -6.4400963            0   -5.6289131   -1.6575265 
    6530   0.54056758   -6.4386409            0   -5.6294112   -1.6289638 
    6540   0.50842857   -6.3908895            0   -5.6297719   -1.4405657 
    6550   0.52569065   -6.4162685            0   -5.6293096   -1.5737426 
    6560   0.53297128   -6.4283528            0   -5.6304948   -1.6393163 
    6570   0.54085992   -6.4396141            0   -5.6299468    -1.672628 
    6580   0.52602409    -6.416492            0   -5.6290339   -1.5881768 
    6590   0.55854335   -6.4654453            0   -5.6293059   -1.7913825 
    6600   0.53673667   -6.4325729            0   -5.6290781   -1.6292869 
    6610   0.53210169   -6.4248267            0   -5.6282705   -1.5495936 
    6620    0.5131378   -6.3963814            0   -5.6282141   -1.3947326 
    6630   0.52473624   -6.4139481            0    -5.628418   -1.4950365 
    6640   0.54835888    -6.448295            0   -5.6274018   -1.6924751 
    6650   0.54631328   -6.4449322            0   -5.6271012   -1.7149441 
    6660   0.55636253   -6.4599305            0   -5.6270558   -1.7886275 
    6670   0.54615065   -6.4444097            0   -5.6268221    -1.729024 
    6680   0.54939315    -6.449405            0   -5.6269635   -1.7618583 
    6690   0.55563214   -6.4595216            0   -5.6277403   -1.7946329 
    6700   0.54072104    -6.437605            0   -5.6281456    -1.667874 
    6710   0.51415414   -6.3979304            0   -5.6282416   -1.4916496 
    6720   0.55013751   -6.4508453            0   -5.6272895   -1.7415163 
    6730   0.55401924   -6.4565507            0   -5.6271839   -1.7892888 
    6740   0.54741823   -6.4459402            0   -5.6264551   -1.7406463 
    6750   0.56506743   -6.4726677            0   -5.6267617   -1.8311833 
    6760   0.54089708   -6.4374306            0   -5.6277076   -1.6521733 
    6770   0.51974225   -6.4061092            0    -5.628055   -1.5084898 
    6780   0.54296302   -6.4397323            0   -5.6269167   -1.6707116 
    6790   0.53702168   -6.4317318            0   -5.6278104   -1.6119245 
    6800   0.51787132   -6.4033103            0    -5.628057   -1.4600759 
    6810   0.52439957   -6.4136887            0   -5.6286626   -1.5050548 
    6820    0.5463726   -6.4445154            0   -5.6265956   -1.6570488 
    6830   0.53540807   -6.4293155            0   -5.6278096   -1.5863612 
    6840     0.527571   -6.4180693            0   -5.6282955   -1.5447422 
    6850   0.54903762   -6.4507949            0   -5.6288856   -1.6968353 
    6860    0.5393152   -6.4367033            0   -5.6293484   -1.6549042 
    6870   0.53525012   -6.4296951            0   -5.6284257   -1.6502869 
    6880    0.5488171   -6.4508916            0   -5.6293124    -1.751294 
    6890   0.54389465   -6.4435502            0     -5.62934   -1.7060893 
    6900   0.54184772   -6.4398215            0   -5.6286754   -1.6722591 
    6910   0.54651994   -6.4468043            0    -5.628664   -1.6901458 
    6920   0.53263914   -6.4251244            0   -5.6277636   -1.5954159 
    6930   0.54362301    -6.442311            0   -5.6285074   -1.6697571 
    6940   0.53749064   -6.4345129            0   -5.6298894   -1.6541011 
    6950   0.55871376   -6.4656208            0   -5.6292263    -1.808869 
    6960   0.54531155   -6.4451439            0   -5.6288125   -1.7223829 
    6970   0.54385019   -6.4431371            0   -5.6289934   -1.6927621 
    6980   0.53796273   -6.4345878            0   -5.6292576   -1.6373894 
    6990   0.52776082   -6.4191047            0   -5.6290468   -1.5526205 
    7000   0.53793795   -6.4331007            0   -5.6278076    -1.618284 
    7010   0.54284433   -6.4401093            0   -5.6274713   -1.6534436 
    7020    0.5242046   -6.4124795            0   -5.6277452   -1.5344951 
    7030   0.53947861   -6.4351099            0   -5.6275104   -1.6533815 
    7040   0.55472595   -6.4576871            0   -5.6272624   -1.7796124 
    7050   0.56368784   -6.4714241            0   -5.6275834    -1.842479 
    7060   0.54740585    -6.446362            0   -5.6268955    -1.737965 
    7070   0.54475428   -6.4430022            0   -5.6275051   -1.7002246 
    7080   0.52157493   -6.4105846            0    -5.629787   -1.5366346 
    7090   0.53630374   -6.4308835            0   -5.6280368   -1.6230219 
    7100   0.54522523   -6.4437127            0   -5.6275106   -1.6978336 
    7110   0.55671372   -6.4606412            0   -5.6272407   -1.7591943 
    7120   0.54106731   -6.4376058            0   -5.6276281   -1.6366239 
    7130   0.54445979   -6.4427968            0   -5.6277405    -1.637658 
    7140   0.55270995   -6.4559922            0   -5.6285854    -1.701399 
    7150   0.53226207   -6.4245383            0   -5.6277419   -1.6149922 
    7160   0.55306641   -6.4549813            0   -5.6270409   -1.7485552 
    7170   0.55003103   -6.4507312            0   -5.6273347   -1.6916358 
    7180   0.54356764   -6.4428609            0   -5.6291402   -1.6482559 
    7190   0.52640003    -6.417434            0   -5.6294132   -1.5569419 
    7200   0.55050444   -6.4531409            0   -5.6290357   -1.6845689 
    7210    0.5198777   -6.4068778            0   -5.6286209   -1.4909583 
    7220   0.51918265   -6.4058967            0   -5.6286803   -1.5212708 
    7230   0.56428077   -6.4735699            0   -5.6288416   -1.8230507 
    7240   0.52997516   -6.4237393            0   -5.6303665   -1.5843475 
    7250    0.5243641    -6.413898            0    -5.628925   -1.5217123 
    7260   0.53043254   -6.4229858            0   -5.6289283   -1.5774437 
    7270   0.55559574   -6.4613533            0   -5.6296265   -1.7586408 
    7280    0.5478219   -6.4495776            0   -5.6294883    -1.703677 
    7290   0.53126414    -6.423806            0   -5.6285036    -1.590589 
    7300   0.52539559    -6.414478            0   -5.6279608   -1.5402456 
    7310   0.53504921   -6.4297457            0    -5.628777   -1.6149079 
    7320   0.55620781   -6.4602656            0   -5.6276225   -1.7657858 
    7330   0.55885671   -6.4644481            0   -5.6278396   -1.7902639 
    7340   0.53314468   -6.4266108            0   -5.6284932   -1.6219485 
    7350   0.53656994   -6.4301788            0   -5.6269336   -1.6073866 
    7360   0.54375038     -6.44084            0   -5.6268457   -1.6391625 
    7370   0.54901544   -6.4495079            0   -5.6276317   -1.6770138 
    7380   0.54546711   -6.4439169            0   -5.6273526   -1.6446559 
    7390   0.53628724   -6.4310244            0   -5.6282024   -1.5550878 
    7400    0.5017962   -6.3803359            0    -5.629147   -1.3337631 
    7410   0.51599315   -6.4028796            0   -5.6304379    -1.435296 
    7420   0.52118427   -6.4110718            0   -5.6308589   -1.4973686 
    7430   0.54062024   -6.4397752            0   -5.6304667   -1.6468521 
    7440   0.55178614   -6.4559415            0   -5.6299177   -1.7440273 
    7450    0.5580663   -6.4644562            0    -5.629031   -1.7945929 
    7460   0.54208867   -6.4398405            0   -5.6283338   -1.6972386 
    7470   0.52378915   -6.4136414            0   -5.6295291   -1.5654223 
    7480   0.53744181   -6.4328696            0   -5.6283192   -1.6272519 
    7490   0.54058177   -6.4370829            0    -5.627832   -1.6639223 
    7500   0.54152167    -6.438525            0    -5.627867   -1.6797492 
    7510   0.52787845   -6.4192118            0   -5.6289778   -1.5650679 
    7520   0.52533831   -6.4144691            0   -5.6280376   -1.5342857 
    7530   0.55362036   -6.4566771            0   -5.6279074   -1.7289096 
    7540   0.54003517   -6.4358703            0   -5.6274376   -1.6665158 
    7550     0.533622   -6.4259504            0   -5.6271183    -1.619509 
    7560   0.52978716   -6.4200547            0   -5.6269633   -1.6029892 
    7570   0.53301147   -6.4262402            0    -5.628322   -1.6159564 
    7580   0.52519812   -6.4142051            0   -5.6279835   -1.5589579 
    7590     0.555731   -6.4604749            0   -5.6285456    -1.749011 
    7600   0.53204766   -6.4255332            0   -5.6290579   -1.5881414 
    7610   0.53642946   -6.4311433            0   -5.6281083   -1.5946226 
    7620   0.54943804   -6.4494732            0   -5.6269645   -1.6994026 
    7630   0.56034536   -6.4646927            0   -5.6258557   -1.7835694 
    7640   0.56714138   -6.4758299            0   -5.6268193   -1.8246753 
    7650   0.55027943    -6.451209            0   -5.6274407   -1.7121942 
    7660   0.53632344   -6.4299453            0   -5.6270692   -1.6284789 
    7670   0.54323705    -6.441754            0   -5.6285281   -1.6722276 
    7680   0.53032585   -6.4224789            0   -5.6285812   -1.5587493 
    7690   0.50573334    -6.385896            0   -5.6288132    -1.405199 
    7700   0.54881433   -6.4497461            0    -5.628171   -1.7157128 
    7710   0.54384112   -6.4433412            0   -5.6292111   -1.7071176 
    7720   0.53365163   -6.4278443            0   -5.6289678   -1.6238955 
    7730    0.5436661   -6.4424664            0   -5.6285983   -1.6601212 
    7740   0.52812479   -6.4195827            0   -5.6289799   -1.5769952 
    7750   0.55320146   -6.4559857            0   -5.6278431   -1.7530553 
    7760   0.53814643   -6.4337556            0   -5.6281504   -1.6464415 
    7770   0.52657071    -6.415969            0   -5.6276926   -1.5476457 
    7780   0.53868436   -6.4341824            0   -5.6277719    -1.647886 
    7790   0.55144801   -6.4532706            0   -5.6277529   -1.7873091 
    7800   0.55804364   -6.4633561            0   -5.6279648   -1.8272439 
    7810   0.52437422   -6.4130553            0   -5.6280671    -1.566367 
    7820    0.5186639   -6.4052282            0   -5.6287883   -1.4995497 
    7830   0.55628374   -6.4616112            0   -5.6288544   -1.7243328 
    7840   0.54284603   -6.4421694            0   -5.6295289   -1.6470673 
    7850   0.51880494   -6.4056328            0   -5.6289818   -1.5172773 
    7860   0.52897529   -6.4194717            0   -5.6275957   -1.5881647 
    7870   0.53358544   -6.4269921            0   -5.6282147   -1.5828347 
    7880    0.5333367   -6.4254329            0   -5.6270279   -1.5554096 
    7890   0.56115911   -6.4674728            0   -5.6274176    -1.765679 
    7900   0.55283449   -6.4546086            0   -5.6270153   -1.7651061 
    7910   0.55381476    -6.456548            0   -5.6274874   -1.7646232 
    7920    0.5446749   -6.4432471            0   -5.6278688   -1.6753061 
    7930   0.53131996   -6.4232143            0   -5.6278283   -1.5542399 
    7940   0.51457166   -6.3984752            0   -5.6281614   -1.4362173 
    7950   0.53702883   -6.4327609            0   -5.6288288    -1.594972 
    7960    0.5365714   -6.4311183            0    -5.627871   -1.6126194 
    7970     0.537403   -6.4324116            0   -5.6279193   -1.6201804 
    7980   0.52405925   -6.4127262            0   -5.6282095    -1.556231 
    7990   0.54379846   -6.4433166            0   -5.6292503   -1.6803712 
    8000   0.53982379   -6.4365989            0   -5.6284827    -1.641389 
    8010   0.54079175   -6.4374627            0   -5.6278975   -1.6225182 
    8020   0.52540317   -6.4149576            0   -5.6284291   -1.5441992 
    8030    0.5365791   -6.4330005            0   -5.6297416   -1.6280881 
    8040   0.54748234   -6.4491484            0   -5.6295673   -1.6919136 
    8050   0.55303685   -6.4568141            0    -5.628918   -1.7190556 
    8060    0.5478267   -6.4476048            0   -5.6275082   -1.7095322 
    8070   0.56352358   -6.4715635            0   -5.6279687   -1.8305565 
    8080   0.53809272   -6.4337419            0   -5.6282171   -1.6504672 
    8090   0.52064899   -6.4081075            0    -5.628696   -1.5339499 
    8100   0.54685836   -6.4458309            0   -5.6271839   -1.7256655 
    8110   0.54831096   -6.4488205            0    -5.627999   -1.7369858 
    8120    0.5361718   -6.4303819            0   -5.6277327     -1.64191 
    8130   0.54313432   -6.4403806            0   -5.6273085   -1.6995871 
    8140   0.57302837   -6.4852571            0   -5.6274337   -1.8745115 
    8150   0.53287695   -6.4244254            0   -5.6267086   -1.5972123 
    8160    0.5185918   -6.4035268            0   -5.6271949    -1.507756 
    8170     0.535976   -6.4295914            0   -5.6272353   -1.6294613 
    8180   0.54067665   -6.4365367            0   -5.6271438   -1.6808273 
    8190   0.54814452   -6.4484095            0   -5.6278372   -1.7283831 
    8200   0.54117017   -6.4380918            0     -5.62796    -1.658395 
    8210   0.52785027   -6.4182402            0   -5.6280483   -1.5636847 
    8220    0.5571999   -6.4624285            0   -5.6283002   -1.7796733 
    8230   0.53084214   -6.4239026            0   -5.6292319   -1.6370229 
    8240   0.52854041   -6.4209214            0   -5.6296965   -1.6042529 
    8250   0.55745565   -6.4643298            0   -5.6298186   -1.7830328 
    8260   0.53609161   -6.4311123            0   -5.6285832   -1.6380685 
    8270   0.51714617   -6.4034379            0     -5.62927    -1.491271 
    8280   0.53467909   -6.4303226            0    -5.629908   -1.5972851 
    8290   0.53916574   -6.4364752            0   -5.6293441   -1.6438542 
    8300   0.55728478   -6.4639281            0   -5.6296728   -1.7548954 
    8310   0.53560169   -6.4304932            0   -5.6286975     -1.61995 
    8320   0.52881646   -6.4199862            0   -5.6283479   -1.5772949 
    8330   0.53158909   -6.4247378            0   -5.6289489   -1.6149481 
    8340   0.53929272   -6.4367682            0    -5.629447   -1.6927632 
    8350   0.55724084   -6.4637617            0   -5.6295722   -1.8022179 
    8360   0.53058265   -6.4228344            0   -5.6285521   -1.6092303 
    8370   0.53805028   -6.4331267            0   -5.6276654   -1.6244368 
    8380   0.52463472   -6.4124015            0   -5.6270233   -1.5071085 
    8390   0.53979954   -6.4367166            0   -5.6286366   -1.6080429 
    8400   0.55165392   -6.4542083            0   -5.6283824   -1.7268893 
    8410    0.5535824    -6.458287            0   -5.6295741   -1.7570437 
    8420   0.53942171   -6.4362872            0   -5.6287729   -1.6583091 
    8430   0.52449996   -6.4144025            0   -5.6292261   -1.5741981 
    8440   0.55369596    -6.457942            0   -5.6290592   -1.7574229 
    8450   0.55268192   -6.4559766            0   -5.6286117   -1.7593401 
    8460   0.55706121   -6.4614149            0   -5.6274943   -1.7584258 
    8470   0.52467417   -6.4125128            0   -5.6270756   -1.5544299 
    8480   0.54186993   -6.4387903            0    -5.627611   -1.6717593 
    8490   0.53240723   -6.4239039            0   -5.6268902   -1.5809194 
    8500   0.51435384   -6.3974458            0   -5.6274581    -1.423044 
    8510   0.52671894   -6.4164771            0   -5.6279788   -1.5206518 
    8520   0.54091318   -6.4376517            0   -5.6279047   -1.6495752 
    8530   0.53722339   -6.4300406            0   -5.6258172    -1.639414 
    8540   0.55161397   -6.4522951            0    -5.626529   -1.7422774 
    8550   0.53725155   -6.4312273            0   -5.6269617   -1.6683906 
    8560   0.54481273   -6.4431407            0   -5.6275561   -1.7015252 
    8570   0.54129716    -6.438371            0   -5.6280492   -1.6758659 
    8580   0.53837494   -6.4345438            0   -5.6285965   -1.6540412 
    8590   0.53046887     -6.42277            0   -5.6286581    -1.606116 
    8600   0.54672574   -6.4469849            0   -5.6285365   -1.6977146 
    8610   0.54873972   -6.4484855            0   -5.6270222    -1.709801 
    8620    0.5509081   -6.4529109            0   -5.6282015   -1.7334772 
    8630   0.52499283   -6.4148771            0   -5.6289628   -1.5737278 
    8640    0.5415496   -6.4400254            0   -5.6293257   -1.6706697 
    8650   0.52486167   -6.4151144            0   -5.6293965   -1.5626969 
    8660   0.52545085   -6.4154575            0   -5.6288576   -1.5433039 
    8670    0.5353305   -6.4314066            0   -5.6300169   -1.5883566 
    8680   0.52156448   -6.4110989            0   -5.6303169   -1.4931663 
    8690     0.522648   -6.4124002            0   -5.6299962    -1.512137 
    8700   0.55133813   -6.4551434            0   -5.6297902   -1.7233746 
    8710   0.54117278   -6.4397455            0   -5.6296098   -1.6391167 
    8720   0.52948581   -6.4223871            0   -5.6297468   -1.5180107 
    8730   0.52972236   -6.4220254            0    -5.629031   -1.5124687 
    8740   0.55374656   -6.4575915            0   -5.6286329   -1.6949885 
    8750   0.53585013   -6.4300543            0   -5.6278867   -1.6094671 
    8760    0.5313708   -6.4243615            0   -5.6288994   -1.5754534 
    8770   0.55001329   -6.4516576            0   -5.6282877   -1.6951558 
    8780   0.55253357   -6.4560737            0   -5.6289309   -1.6976681 
    8790    0.5291769    -6.420493            0   -5.6283152    -1.519049 
    8800   0.51900275   -6.4054892            0   -5.6285421   -1.4401714 
    8810   0.54137673   -6.4397473            0   -5.6293064   -1.6164187 
    8820   0.54435109   -6.4439817            0   -5.6290882   -1.6636886 
    8830   0.51192563   -6.3967858            0   -5.6304331   -1.4661567 
    8840   0.53499292   -6.4319561            0   -5.6310717   -1.5992217 
    8850   0.53804345   -6.4351517            0   -5.6297007   -1.6143218 
    8860     0.539889   -6.4380666            0   -5.6298528   -1.6308993 
    8870    0.5476913   -6.4485176            0   -5.6286237   -1.6755058 
    8880    0.5236653   -6.4124154            0   -5.6284884   -1.5222711 
    8890    0.5119821   -6.3952901            0   -5.6288529   -1.4576997 
    8900   0.53676693   -6.4331248            0   -5.6295848   -1.6408807 
    8910   0.53197433   -6.4265282            0   -5.6301626   -1.6147456 
    8920   0.53532036   -6.4319358            0   -5.6305612   -1.6392631 
    8930   0.53836565   -6.4356819            0   -5.6297485   -1.6907071 
    8940   0.53608595   -6.4324818            0   -5.6299612   -1.6911137 
    8950   0.54848585   -6.4508735            0   -5.6297902   -1.7458134 
    8960   0.53959976     -6.43698            0   -5.6291992   -1.6717927 
    8970   0.53649511   -6.4307775            0   -5.6276444   -1.6552091 
    8980   0.53920627   -6.4353391            0   -5.6281474   -1.6504613 
    8990   0.51982365   -6.4066895            0   -5.6285135   -1.5003384 
    9000   0.53398563   -6.4276958            0   -5.6283193   -1.5799242 
    9010   0.52459504   -6.4141336            0   -5.6288148   -1.5413268 
    9020   0.53076283    -6.423234            0    -5.628682    -1.591973 
    9030   0.54135168   -6.4392572            0   -5.6288538   -1.6436801 
    9040   0.52321094   -6.4113039            0   -5.6280571   -1.5183556 
    9050   0.53879141   -6.4333023            0   -5.6267316   -1.6246657 
    9060   0.56239991    -6.468466            0   -5.6265533   -1.8053608 
    9070   0.55949786   -6.4649864            0   -5.6274181   -1.7986133 
    9080   0.55508334   -6.4597473            0   -5.6287875   -1.7222481 
    9090   0.53869256   -6.4339741            0   -5.6275513   -1.5839279 
    9100   0.54182249   -6.4388177            0   -5.6277095   -1.6196567 
    9110   0.53354929   -6.4268203            0    -5.628097   -1.5831179 
    9120   0.53862147   -6.4347895            0   -5.6284732   -1.6280236 
    9130   0.53039745   -6.4231016            0   -5.6290966    -1.584031 
    9140   0.51266427   -6.3970772            0   -5.6296188   -1.4792137 
    9150   0.54269615   -6.4427167            0   -5.6303005   -1.7074775 
    9160   0.55111396   -6.4540949            0   -5.6290773    -1.778057 
    9170   0.54748866    -6.447384            0   -5.6277935   -1.7214428 
    9180   0.52570543   -6.4146797            0   -5.6276987   -1.5474266 
    9190   0.53297403   -6.4244435            0   -5.6265813   -1.5943353 
    9200   0.56125674   -6.4674366            0   -5.6272352   -1.7841295 
    9210   0.53536756   -6.4288267            0   -5.6273815   -1.6127556 
    9220   0.55363561   -6.4574553            0   -5.6286627   -1.7203364 
    9230   0.53200269   -6.4248032            0   -5.6283952   -1.5825992 
    9240   0.51845719   -6.4042578            0   -5.6281274   -1.4843268 
    9250   0.52877817   -6.4204784            0   -5.6288974   -1.5765031 
    9260   0.55693868   -6.4626046            0   -5.6288674   -1.7659818 
    9270   0.52052899   -6.4085843            0   -5.6293524   -1.5392192 
    9280   0.54218263   -6.4409537            0   -5.6293063   -1.6557262 
    9290   0.55337678    -6.455865            0   -5.6274599   -1.7078544 
    9300   0.54633861   -6.4460657            0   -5.6281968   -1.6788491 
    9310   0.53562784   -6.4315808            0    -5.629746   -1.6303397 
    9320   0.53577198   -6.4307759            0   -5.6287252   -1.6153868 
    9330   0.52197922   -6.4105882            0   -5.6291853   -1.5348035 
    9340   0.52668419   -6.4173248            0   -5.6288786    -1.575531 
    9350   0.54646376   -6.4462685            0   -5.6282122   -1.6997766 
    9360    0.5393723   -6.4358906            0   -5.6284503   -1.6502522 
    9370   0.53238301   -6.4257426            0   -5.6287653   -1.6013445 
    9380   0.54067407   -6.4379022            0   -5.6285132   -1.6668897 
    9390   0.53637019   -6.4314024            0   -5.6284562   -1.6412828 
    9400   0.53613583    -6.432004            0   -5.6294087   -1.6350628 
    9410   0.55560618   -6.4606653            0   -5.6289228   -1.7645532 
    9420    0.5397467   -6.4370263            0   -5.6290254   -1.6585802 
    9430   0.52261831   -6.4105868            0   -5.6282272   -1.5239513 
    9440   0.53378542    -6.427914            0   -5.6288372   -1.5992472 
    9450    0.5361213   -6.4316281            0   -5.6290546    -1.626226 
    9460   0.55294219   -6.4564496            0   -5.6286952   -1.7289659 
    9470   0.53661202   -6.4331258            0   -5.6298177   -1.6115348 
    9480   0.50827299    -6.390519            0   -5.6296343   -1.4242134 
    9490   0.52636656   -6.4171107            0     -5.62914   -1.5200174 
    9500   0.53299413   -6.4275195            0   -5.6296273   -1.5661066 
    9510    0.5370256   -6.4334443            0    -5.629517   -1.6159088 
    9520   0.54407829   -6.4451006            0   -5.6306154   -1.6644706 
    9530   0.50771435   -6.3885141            0   -5.6284658   -1.4301935 
    9540   0.54041491   -6.4377481            0   -5.6287469   -1.6451983 
    9550   0.53987119   -6.4382141            0   -5.6300269   -1.6748107 
    9560    0.5401046   -6.4377863            0   -5.6292497   -1.6705999 
    9570   0.54461786   -6.4449943            0   -5.6297014   -1.6966283 
    9580   0.53839416   -6.4355552            0   -5.6295791   -1.6569048 
    9590   0.55230073   -6.4567123            0   -5.6299181   -1.7430488 
    9600   0.54161285   -6.4403065            0   -5.6295121   -1.6949885 
    9610   0.53510536   -6.4298721            0   -5.6288194   -1.6321449 
    9620   0.51862693   -6.4049794            0   -5.6285949   -1.5270455 
    9630   0.55039471   -6.4531889            0    -5.629248   -1.7592335 
    9640   0.55692451   -6.4624942            0   -5.6287782   -1.8025071 
    9650   0.54084253   -6.4368511            0   -5.6272098   -1.6508664 
    9660   0.55028645   -6.4499423            0   -5.6261634   -1.6885467 
    9670   0.52610946   -6.4161342            0   -5.6285484   -1.5621231 
    9680    0.5212214   -6.4097696            0   -5.6295012   -1.5173099 
    9690   0.48502382   -6.3545007            0     -5.62842   -1.2707656 
    9700   0.52087805   -6.4073089            0   -5.6275545   -1.5045095 
    9710   0.54488221   -6.4440197            0    -5.628331   -1.6974573 
    9720   0.53899374   -6.4363239            0   -5.6294502   -1.6722486 
    9730   0.53877159   -6.4358378            0   -5.6292967   -1.6783378 
    9740   0.58073634   -6.4980714            0   -5.6287091   -1.9479466 
    9750   0.55299854   -6.4571594            0   -5.6293206   -1.7673764 
    9760   0.53355027   -6.4290354            0   -5.6303106   -1.6104605 
    9770   0.52959263   -6.4234047            0   -5.6306045    -1.571484 
    9780   0.53534476   -6.4310884            0   -5.6296773   -1.6078282 
    9790    0.5344218   -6.4298647            0   -5.6298352   -1.5899127 
    9800   0.52443462   -6.4145269            0   -5.6294483    -1.512612 
    9810   0.52589154   -6.4165012            0   -5.6292416    -1.517274 
    9820   0.53178932   -6.4263614            0   -5.6302727   -1.5632868 
    9830   0.54084855   -6.4399301            0   -5.6302798   -1.6329122 
    9840   0.52570342   -6.4156198            0   -5.6286418   -1.5503599 
    9850   0.54038339   -6.4368578            0   -5.6279038   -1.6711722 
    9860   0.55897903   -6.4649442            0   -5.6281526   -1.7930083 
    9870   0.51362861   -6.3975347            0   -5.6286326   -1.4653014 
    9880   0.51095815   -6.3935386            0   -5.6286343    -1.416633 
    9890   0.51349586   -6.3970193            0    -5.628316   -1.4607723 
    9900   0.53491012   -6.4291247            0   -5.6283642   -1.5912466 
    9910   0.53351163   -6.4265954            0   -5.6279285   -1.5853272 
    9920   0.55782312   -6.4633432            0    -5.628282   -1.7515165 
    9930   0.54036444   -6.4375839            0   -5.6286583    -1.648769 
    9940   0.53573654   -6.4314473            0   -5.6294497   -1.6171444 
    9950   0.54640681   -6.4479109            0   -5.6299399   -1.6994775 
    9960    0.5511263   -6.4540638            0   -5.6290278   -1.7498077 
    9970    0.5467041   -6.4468878            0   -5.6284718   -1.7273256 
    9980   0.55457837   -6.4584475            0   -5.6282437   -1.7710344 
    9990   0.54040678   -6.4373212            0   -5.6283322   -1.6811191 
   10000   0.55139281   -6.4542356            0   -5.6288005   -1.7468899 
Loop time of 5.46368 on 1 procs for 10000 steps with 500 atoms

Performance: 790675.429 tau/day, 1830.267 timesteps/s
78.4% CPU use with 1 MPI tasks x 1 OpenMP threads

MPI task timing breakdown:
Section |  min time  |  avg time  |  max time  |%varavg| %total
---------------------------------------------------------------
Pair    | 2.6489     | 2.6489     | 2.6489     |   0.0 | 48.48
Neigh   | 0.44785    | 0.44785    | 0.44785    |   0.0 |  8.20
Comm    | 0.057111   | 0.057111   | 0.057111   |   0.0 |  1.05
Output  | 2.2514     | 2.2514     | 2.2514     |   0.0 | 41.21
Modify  | 0.042869   | 0.042869   | 0.042869   |   0.0 |  0.78
Other   |            | 0.01564    |            |       |  0.29

Nlocal:    500 ave 500 max 500 min
Histogram: 1 0 0 0 0 0 0 0 0 0
Nghost:    1956 ave 1956 max 1956 min
Histogram: 1 0 0 0 0 0 0 0 0 0
Neighs:    19685 ave 19685 max 19685 min
Histogram: 1 0 0 0 0 0 0 0 0 0

Total # of neighbors = 19685
Ave neighs/atom = 39.37
Neighbor list builds = 500
Dangerous builds not checked
Total wall time: 0:00:05
