ITEM: TIMESTEP
0
ITEM: NUMBER OF ATOMS
500
ITEM: BOX BOUNDS pp pp pp
0.0000000000000000e+000 8.2693840978847462e+000
0.0000000000000000e+000 8.2693840978847462e+000
0.0000000000000000e+000 8.2693840978847462e+000
ITEM: ATOMS id type x y z 
1 1 0 0 0 
2 1 0.826938 0.826938 0 
3 1 0.826938 0 0.826938 
4 1 0 0.826938 0.826938 
5 1 1.65388 0 0 
6 1 2.48082 0.826938 0 
7 1 2.48082 0 0.826938 
8 1 1.65388 0.826938 0.826938 
9 1 3.30775 0 0 
10 1 4.13469 0.826938 0 
11 1 4.13469 0 0.826938 
12 1 3.30775 0.826938 0.826938 
13 1 4.96163 0 0 
14 1 5.78857 0.826938 0 
15 1 5.78857 0 0.826938 
16 1 4.96163 0.826938 0.826938 
17 1 6.61551 0 0 
18 1 7.44245 0.826938 0 
19 1 7.44245 0 0.826938 
20 1 6.61551 0.826938 0.826938 
21 1 0 1.65388 0 
22 1 0.826938 2.48082 0 
23 1 0.826938 1.65388 0.826938 
24 1 0 2.48082 0.826938 
25 1 1.65388 1.65388 0 
26 1 2.48082 2.48082 0 
27 1 2.48082 1.65388 0.826938 
28 1 1.65388 2.48082 0.826938 
29 1 3.30775 1.65388 0 
30 1 4.13469 2.48082 0 
31 1 4.13469 1.65388 0.826938 
32 1 3.30775 2.48082 0.826938 
33 1 4.96163 1.65388 0 
34 1 5.78857 2.48082 0 
35 1 5.78857 1.65388 0.826938 
36 1 4.96163 2.48082 0.826938 
37 1 6.61551 1.65388 0 
38 1 7.44245 2.48082 0 
39 1 7.44245 1.65388 0.826938 
40 1 6.61551 2.48082 0.826938 
41 1 0 3.30775 0 
42 1 0.826938 4.13469 0 
43 1 0.826938 3.30775 0.826938 
44 1 0 4.13469 0.826938 
45 1 1.65388 3.30775 0 
46 1 2.48082 4.13469 0 
47 1 2.48082 3.30775 0.826938 
48 1 1.65388 4.13469 0.826938 
49 1 3.30775 3.30775 0 
50 1 4.13469 4.13469 0 
51 1 4.13469 3.30775 0.826938 
52 1 3.30775 4.13469 0.826938 
53 1 4.96163 3.30775 0 
54 1 5.78857 4.13469 0 
55 1 5.78857 3.30775 0.826938 
56 1 4.96163 4.13469 0.826938 
57 1 6.61551 3.30775 0 
58 1 7.44245 4.13469 0 
59 1 7.44245 3.30775 0.826938 
60 1 6.61551 4.13469 0.826938 
61 1 0 4.96163 0 
62 1 0.826938 5.78857 0 
63 1 0.826938 4.96163 0.826938 
64 1 0 5.78857 0.826938 
65 1 1.65388 4.96163 0 
66 1 2.48082 5.78857 0 
67 1 2.48082 4.96163 0.826938 
68 1 1.65388 5.78857 0.826938 
69 1 3.30775 4.96163 0 
70 1 4.13469 5.78857 0 
71 1 4.13469 4.96163 0.826938 
72 1 3.30775 5.78857 0.826938 
73 1 4.96163 4.96163 0 
74 1 5.78857 5.78857 0 
75 1 5.78857 4.96163 0.826938 
76 1 4.96163 5.78857 0.826938 
77 1 6.61551 4.96163 0 
78 1 7.44245 5.78857 0 
79 1 7.44245 4.96163 0.826938 
80 1 6.61551 5.78857 0.826938 
81 1 0 6.61551 0 
82 1 0.826938 7.44245 0 
83 1 0.826938 6.61551 0.826938 
84 1 0 7.44245 0.826938 
85 1 1.65388 6.61551 0 
86 1 2.48082 7.44245 0 
87 1 2.48082 6.61551 0.826938 
88 1 1.65388 7.44245 0.826938 
89 1 3.30775 6.61551 0 
90 1 4.13469 7.44245 0 
91 1 4.13469 6.61551 0.826938 
92 1 3.30775 7.44245 0.826938 
93 1 4.96163 6.61551 0 
94 1 5.78857 7.44245 0 
95 1 5.78857 6.61551 0.826938 
96 1 4.96163 7.44245 0.826938 
97 1 6.61551 6.61551 0 
98 1 7.44245 7.44245 0 
99 1 7.44245 6.61551 0.826938 
100 1 6.61551 7.44245 0.826938 
101 1 0 0 1.65388 
102 1 0.826938 0.826938 1.65388 
103 1 0.826938 0 2.48082 
104 1 0 0.826938 2.48082 
105 1 1.65388 0 1.65388 
106 1 2.48082 0.826938 1.65388 
107 1 2.48082 0 2.48082 
108 1 1.65388 0.826938 2.48082 
109 1 3.30775 0 1.65388 
110 1 4.13469 0.826938 1.65388 
111 1 4.13469 0 2.48082 
112 1 3.30775 0.826938 2.48082 
113 1 4.96163 0 1.65388 
114 1 5.78857 0.826938 1.65388 
115 1 5.78857 0 2.48082 
116 1 4.96163 0.826938 2.48082 
117 1 6.61551 0 1.65388 
118 1 7.44245 0.826938 1.65388 
119 1 7.44245 0 2.48082 
120 1 6.61551 0.826938 2.48082 
121 1 0 1.65388 1.65388 
122 1 0.826938 2.48082 1.65388 
123 1 0.826938 1.65388 2.48082 
124 1 0 2.48082 2.48082 
125 1 1.65388 1.65388 1.65388 
126 1 2.48082 2.48082 1.65388 
127 1 2.48082 1.65388 2.48082 
128 1 1.65388 2.48082 2.48082 
129 1 3.30775 1.65388 1.65388 
130 1 4.13469 2.48082 1.65388 
131 1 4.13469 1.65388 2.48082 
132 1 3.30775 2.48082 2.48082 
133 1 4.96163 1.65388 1.65388 
134 1 5.78857 2.48082 1.65388 
135 1 5.78857 1.65388 2.48082 
136 1 4.96163 2.48082 2.48082 
137 1 6.61551 1.65388 1.65388 
138 1 7.44245 2.48082 1.65388 
139 1 7.44245 1.65388 2.48082 
140 1 6.61551 2.48082 2.48082 
141 1 0 3.30775 1.65388 
142 1 0.826938 4.13469 1.65388 
143 1 0.826938 3.30775 2.48082 
144 1 0 4.13469 2.48082 
145 1 1.65388 3.30775 1.65388 
146 1 2.48082 4.13469 1.65388 
147 1 2.48082 3.30775 2.48082 
148 1 1.65388 4.13469 2.48082 
149 1 3.30775 3.30775 1.65388 
150 1 4.13469 4.13469 1.65388 
151 1 4.13469 3.30775 2.48082 
152 1 3.30775 4.13469 2.48082 
153 1 4.96163 3.30775 1.65388 
154 1 5.78857 4.13469 1.65388 
155 1 5.78857 3.30775 2.48082 
156 1 4.96163 4.13469 2.48082 
157 1 6.61551 3.30775 1.65388 
158 1 7.44245 4.13469 1.65388 
159 1 7.44245 3.30775 2.48082 
160 1 6.61551 4.13469 2.48082 
161 1 0 4.96163 1.65388 
162 1 0.826938 5.78857 1.65388 
163 1 0.826938 4.96163 2.48082 
164 1 0 5.78857 2.48082 
165 1 1.65388 4.96163 1.65388 
166 1 2.48082 5.78857 1.65388 
167 1 2.48082 4.96163 2.48082 
168 1 1.65388 5.78857 2.48082 
169 1 3.30775 4.96163 1.65388 
170 1 4.13469 5.78857 1.65388 
171 1 4.13469 4.96163 2.48082 
172 1 3.30775 5.78857 2.48082 
173 1 4.96163 4.96163 1.65388 
174 1 5.78857 5.78857 1.65388 
175 1 5.78857 4.96163 2.48082 
176 1 4.96163 5.78857 2.48082 
177 1 6.61551 4.96163 1.65388 
178 1 7.44245 5.78857 1.65388 
179 1 7.44245 4.96163 2.48082 
180 1 6.61551 5.78857 2.48082 
181 1 0 6.61551 1.65388 
182 1 0.826938 7.44245 1.65388 
183 1 0.826938 6.61551 2.48082 
184 1 0 7.44245 2.48082 
185 1 1.65388 6.61551 1.65388 
186 1 2.48082 7.44245 1.65388 
187 1 2.48082 6.61551 2.48082 
188 1 1.65388 7.44245 2.48082 
189 1 3.30775 6.61551 1.65388 
190 1 4.13469 7.44245 1.65388 
191 1 4.13469 6.61551 2.48082 
192 1 3.30775 7.44245 2.48082 
193 1 4.96163 6.61551 1.65388 
194 1 5.78857 7.44245 1.65388 
195 1 5.78857 6.61551 2.48082 
196 1 4.96163 7.44245 2.48082 
197 1 6.61551 6.61551 1.65388 
198 1 7.44245 7.44245 1.65388 
199 1 7.44245 6.61551 2.48082 
200 1 6.61551 7.44245 2.48082 
201 1 0 0 3.30775 
202 1 0.826938 0.826938 3.30775 
203 1 0.826938 0 4.13469 
204 1 0 0.826938 4.13469 
205 1 1.65388 0 3.30775 
206 1 2.48082 0.826938 3.30775 
207 1 2.48082 0 4.13469 
208 1 1.65388 0.826938 4.13469 
209 1 3.30775 0 3.30775 
210 1 4.13469 0.826938 3.30775 
211 1 4.13469 0 4.13469 
212 1 3.30775 0.826938 4.13469 
213 1 4.96163 0 3.30775 
214 1 5.78857 0.826938 3.30775 
215 1 5.78857 0 4.13469 
216 1 4.96163 0.826938 4.13469 
217 1 6.61551 0 3.30775 
218 1 7.44245 0.826938 3.30775 
219 1 7.44245 0 4.13469 
220 1 6.61551 0.826938 4.13469 
221 1 0 1.65388 3.30775 
222 1 0.826938 2.48082 3.30775 
223 1 0.826938 1.65388 4.13469 
224 1 0 2.48082 4.13469 
225 1 1.65388 1.65388 3.30775 
226 1 2.48082 2.48082 3.30775 
227 1 2.48082 1.65388 4.13469 
228 1 1.65388 2.48082 4.13469 
229 1 3.30775 1.65388 3.30775 
230 1 4.13469 2.48082 3.30775 
231 1 4.13469 1.65388 4.13469 
232 1 3.30775 2.48082 4.13469 
233 1 4.96163 1.65388 3.30775 
234 1 5.78857 2.48082 3.30775 
235 1 5.78857 1.65388 4.13469 
236 1 4.96163 2.48082 4.13469 
237 1 6.61551 1.65388 3.30775 
238 1 7.44245 2.48082 3.30775 
239 1 7.44245 1.65388 4.13469 
240 1 6.61551 2.48082 4.13469 
241 1 0 3.30775 3.30775 
242 1 0.826938 4.13469 3.30775 
243 1 0.826938 3.30775 4.13469 
244 1 0 4.13469 4.13469 
245 1 1.65388 3.30775 3.30775 
246 1 2.48082 4.13469 3.30775 
247 1 2.48082 3.30775 4.13469 
248 1 1.65388 4.13469 4.13469 
249 1 3.30775 3.30775 3.30775 
250 1 4.13469 4.13469 3.30775 
251 1 4.13469 3.30775 4.13469 
252 1 3.30775 4.13469 4.13469 
253 1 4.96163 3.30775 3.30775 
254 1 5.78857 4.13469 3.30775 
255 1 5.78857 3.30775 4.13469 
256 1 4.96163 4.13469 4.13469 
257 1 6.61551 3.30775 3.30775 
258 1 7.44245 4.13469 3.30775 
259 1 7.44245 3.30775 4.13469 
260 1 6.61551 4.13469 4.13469 
261 1 0 4.96163 3.30775 
262 1 0.826938 5.78857 3.30775 
263 1 0.826938 4.96163 4.13469 
264 1 0 5.78857 4.13469 
265 1 1.65388 4.96163 3.30775 
266 1 2.48082 5.78857 3.30775 
267 1 2.48082 4.96163 4.13469 
268 1 1.65388 5.78857 4.13469 
269 1 3.30775 4.96163 3.30775 
270 1 4.13469 5.78857 3.30775 
271 1 4.13469 4.96163 4.13469 
272 1 3.30775 5.78857 4.13469 
273 1 4.96163 4.96163 3.30775 
274 1 5.78857 5.78857 3.30775 
275 1 5.78857 4.96163 4.13469 
276 1 4.96163 5.78857 4.13469 
277 1 6.61551 4.96163 3.30775 
278 1 7.44245 5.78857 3.30775 
279 1 7.44245 4.96163 4.13469 
280 1 6.61551 5.78857 4.13469 
281 1 0 6.61551 3.30775 
282 1 0.826938 7.44245 3.30775 
283 1 0.826938 6.61551 4.13469 
284 1 0 7.44245 4.13469 
285 1 1.65388 6.61551 3.30775 
286 1 2.48082 7.44245 3.30775 
287 1 2.48082 6.61551 4.13469 
288 1 1.65388 7.44245 4.13469 
289 1 3.30775 6.61551 3.30775 
290 1 4.13469 7.44245 3.30775 
291 1 4.13469 6.61551 4.13469 
292 1 3.30775 7.44245 4.13469 
293 1 4.96163 6.61551 3.30775 
294 1 5.78857 7.44245 3.30775 
295 1 5.78857 6.61551 4.13469 
296 1 4.96163 7.44245 4.13469 
297 1 6.61551 6.61551 3.30775 
298 1 7.44245 7.44245 3.30775 
299 1 7.44245 6.61551 4.13469 
300 1 6.61551 7.44245 4.13469 
301 1 0 0 4.96163 
302 1 0.826938 0.826938 4.96163 
303 1 0.826938 0 5.78857 
304 1 0 0.826938 5.78857 
305 1 1.65388 0 4.96163 
306 1 2.48082 0.826938 4.96163 
307 1 2.48082 0 5.78857 
308 1 1.65388 0.826938 5.78857 
309 1 3.30775 0 4.96163 
310 1 4.13469 0.826938 4.96163 
311 1 4.13469 0 5.78857 
312 1 3.30775 0.826938 5.78857 
313 1 4.96163 0 4.96163 
314 1 5.78857 0.826938 4.96163 
315 1 5.78857 0 5.78857 
316 1 4.96163 0.826938 5.78857 
317 1 6.61551 0 4.96163 
318 1 7.44245 0.826938 4.96163 
319 1 7.44245 0 5.78857 
320 1 6.61551 0.826938 5.78857 
321 1 0 1.65388 4.96163 
322 1 0.826938 2.48082 4.96163 
323 1 0.826938 1.65388 5.78857 
324 1 0 2.48082 5.78857 
325 1 1.65388 1.65388 4.96163 
326 1 2.48082 2.48082 4.96163 
327 1 2.48082 1.65388 5.78857 
328 1 1.65388 2.48082 5.78857 
329 1 3.30775 1.65388 4.96163 
330 1 4.13469 2.48082 4.96163 
331 1 4.13469 1.65388 5.78857 
332 1 3.30775 2.48082 5.78857 
333 1 4.96163 1.65388 4.96163 
334 1 5.78857 2.48082 4.96163 
335 1 5.78857 1.65388 5.78857 
336 1 4.96163 2.48082 5.78857 
337 1 6.61551 1.65388 4.96163 
338 1 7.44245 2.48082 4.96163 
339 1 7.44245 1.65388 5.78857 
340 1 6.61551 2.48082 5.78857 
341 1 0 3.30775 4.96163 
342 1 0.826938 4.13469 4.96163 
343 1 0.826938 3.30775 5.78857 
344 1 0 4.13469 5.78857 
345 1 1.65388 3.30775 4.96163 
346 1 2.48082 4.13469 4.96163 
347 1 2.48082 3.30775 5.78857 
348 1 1.65388 4.13469 5.78857 
349 1 3.30775 3.30775 4.96163 
350 1 4.13469 4.13469 4.96163 
351 1 4.13469 3.30775 5.78857 
352 1 3.30775 4.13469 5.78857 
353 1 4.96163 3.30775 4.96163 
354 1 5.78857 4.13469 4.96163 
355 1 5.78857 3.30775 5.78857 
356 1 4.96163 4.13469 5.78857 
357 1 6.61551 3.30775 4.96163 
358 1 7.44245 4.13469 4.96163 
359 1 7.44245 3.30775 5.78857 
360 1 6.61551 4.13469 5.78857 
361 1 0 4.96163 4.96163 
362 1 0.826938 5.78857 4.96163 
363 1 0.826938 4.96163 5.78857 
364 1 0 5.78857 5.78857 
365 1 1.65388 4.96163 4.96163 
366 1 2.48082 5.78857 4.96163 
367 1 2.48082 4.96163 5.78857 
368 1 1.65388 5.78857 5.78857 
369 1 3.30775 4.96163 4.96163 
370 1 4.13469 5.78857 4.96163 
371 1 4.13469 4.96163 5.78857 
372 1 3.30775 5.78857 5.78857 
373 1 4.96163 4.96163 4.96163 
374 1 5.78857 5.78857 4.96163 
375 1 5.78857 4.96163 5.78857 
376 1 4.96163 5.78857 5.78857 
377 1 6.61551 4.96163 4.96163 
378 1 7.44245 5.78857 4.96163 
379 1 7.44245 4.96163 5.78857 
380 1 6.61551 5.78857 5.78857 
381 1 0 6.61551 4.96163 
382 1 0.826938 7.44245 4.96163 
383 1 0.826938 6.61551 5.78857 
384 1 0 7.44245 5.78857 
385 1 1.65388 6.61551 4.96163 
386 1 2.48082 7.44245 4.96163 
387 1 2.48082 6.61551 5.78857 
388 1 1.65388 7.44245 5.78857 
389 1 3.30775 6.61551 4.96163 
390 1 4.13469 7.44245 4.96163 
391 1 4.13469 6.61551 5.78857 
392 1 3.30775 7.44245 5.78857 
393 1 4.96163 6.61551 4.96163 
394 1 5.78857 7.44245 4.96163 
395 1 5.78857 6.61551 5.78857 
396 1 4.96163 7.44245 5.78857 
397 1 6.61551 6.61551 4.96163 
398 1 7.44245 7.44245 4.96163 
399 1 7.44245 6.61551 5.78857 
400 1 6.61551 7.44245 5.78857 
401 1 0 0 6.61551 
402 1 0.826938 0.826938 6.61551 
403 1 0.826938 0 7.44245 
404 1 0 0.826938 7.44245 
405 1 1.65388 0 6.61551 
406 1 2.48082 0.826938 6.61551 
407 1 2.48082 0 7.44245 
408 1 1.65388 0.826938 7.44245 
409 1 3.30775 0 6.61551 
410 1 4.13469 0.826938 6.61551 
411 1 4.13469 0 7.44245 
412 1 3.30775 0.826938 7.44245 
413 1 4.96163 0 6.61551 
414 1 5.78857 0.826938 6.61551 
415 1 5.78857 0 7.44245 
416 1 4.96163 0.826938 7.44245 
417 1 6.61551 0 6.61551 
418 1 7.44245 0.826938 6.61551 
419 1 7.44245 0 7.44245 
420 1 6.61551 0.826938 7.44245 
421 1 0 1.65388 6.61551 
422 1 0.826938 2.48082 6.61551 
423 1 0.826938 1.65388 7.44245 
424 1 0 2.48082 7.44245 
425 1 1.65388 1.65388 6.61551 
426 1 2.48082 2.48082 6.61551 
427 1 2.48082 1.65388 7.44245 
428 1 1.65388 2.48082 7.44245 
429 1 3.30775 1.65388 6.61551 
430 1 4.13469 2.48082 6.61551 
431 1 4.13469 1.65388 7.44245 
432 1 3.30775 2.48082 7.44245 
433 1 4.96163 1.65388 6.61551 
434 1 5.78857 2.48082 6.61551 
435 1 5.78857 1.65388 7.44245 
436 1 4.96163 2.48082 7.44245 
437 1 6.61551 1.65388 6.61551 
438 1 7.44245 2.48082 6.61551 
439 1 7.44245 1.65388 7.44245 
440 1 6.61551 2.48082 7.44245 
441 1 0 3.30775 6.61551 
442 1 0.826938 4.13469 6.61551 
443 1 0.826938 3.30775 7.44245 
444 1 0 4.13469 7.44245 
445 1 1.65388 3.30775 6.61551 
446 1 2.48082 4.13469 6.61551 
447 1 2.48082 3.30775 7.44245 
448 1 1.65388 4.13469 7.44245 
449 1 3.30775 3.30775 6.61551 
450 1 4.13469 4.13469 6.61551 
451 1 4.13469 3.30775 7.44245 
452 1 3.30775 4.13469 7.44245 
453 1 4.96163 3.30775 6.61551 
454 1 5.78857 4.13469 6.61551 
455 1 5.78857 3.30775 7.44245 
456 1 4.96163 4.13469 7.44245 
457 1 6.61551 3.30775 6.61551 
458 1 7.44245 4.13469 6.61551 
459 1 7.44245 3.30775 7.44245 
460 1 6.61551 4.13469 7.44245 
461 1 0 4.96163 6.61551 
462 1 0.826938 5.78857 6.61551 
463 1 0.826938 4.96163 7.44245 
464 1 0 5.78857 7.44245 
465 1 1.65388 4.96163 6.61551 
466 1 2.48082 5.78857 6.61551 
467 1 2.48082 4.96163 7.44245 
468 1 1.65388 5.78857 7.44245 
469 1 3.30775 4.96163 6.61551 
470 1 4.13469 5.78857 6.61551 
471 1 4.13469 4.96163 7.44245 
472 1 3.30775 5.78857 7.44245 
473 1 4.96163 4.96163 6.61551 
474 1 5.78857 5.78857 6.61551 
475 1 5.78857 4.96163 7.44245 
476 1 4.96163 5.78857 7.44245 
477 1 6.61551 4.96163 6.61551 
478 1 7.44245 5.78857 6.61551 
479 1 7.44245 4.96163 7.44245 
480 1 6.61551 5.78857 7.44245 
481 1 0 6.61551 6.61551 
482 1 0.826938 7.44245 6.61551 
483 1 0.826938 6.61551 7.44245 
484 1 0 7.44245 7.44245 
485 1 1.65388 6.61551 6.61551 
486 1 2.48082 7.44245 6.61551 
487 1 2.48082 6.61551 7.44245 
488 1 1.65388 7.44245 7.44245 
489 1 3.30775 6.61551 6.61551 
490 1 4.13469 7.44245 6.61551 
491 1 4.13469 6.61551 7.44245 
492 1 3.30775 7.44245 7.44245 
493 1 4.96163 6.61551 6.61551 
494 1 5.78857 7.44245 6.61551 
495 1 5.78857 6.61551 7.44245 
496 1 4.96163 7.44245 7.44245 
497 1 6.61551 6.61551 6.61551 
498 1 7.44245 7.44245 6.61551 
499 1 7.44245 6.61551 7.44245 
500 1 6.61551 7.44245 7.44245 
ITEM: TIMESTEP
100
ITEM: NUMBER OF ATOMS
500
ITEM: BOX BOUNDS pp pp pp
0.0000000000000000e+000 8.2693840978847462e+000
0.0000000000000000e+000 8.2693840978847462e+000
0.0000000000000000e+000 8.2693840978847462e+000
ITEM: ATOMS id type x y z 
1 1 0.0330144 8.23681 8.24464 
2 1 0.895199 0.654069 0.00679032 
3 1 0.825559 8.12368 0.75051 
4 1 8.23236 0.742616 0.746175 
5 1 1.7332 8.18756 8.26585 
6 1 2.57913 0.732668 0.158517 
7 1 2.36143 8.06074 1.09366 
8 1 1.6733 0.655032 0.791661 
9 1 3.41545 8.24161 8.20351 
10 1 4.04498 0.780403 0.0815582 
11 1 4.10947 0.151449 0.852088 
12 1 3.2381 0.866899 0.905833 
13 1 5.02055 0.0387883 0.13467 
14 1 5.57502 0.947394 8.23922 
15 1 5.79523 8.07654 0.940819 
16 1 4.87527 0.915933 0.852296 
17 1 6.37533 8.17287 8.2319 
18 1 7.36582 0.768743 0.0144432 
19 1 7.41467 8.15897 0.955723 
20 1 6.66688 0.648255 0.9095 
21 1 0.11396 1.55782 8.25001 
22 1 0.873106 2.3593 8.06739 
23 1 0.829737 1.40387 0.833998 
24 1 0.132506 2.38339 0.700491 
25 1 1.57231 1.41989 8.24007 
26 1 2.43736 2.43179 8.16626 
27 1 2.38863 1.59953 0.928437 
28 1 1.59367 2.50047 0.875389 
29 1 3.32628 1.63202 8.17079 
30 1 4.08082 2.44042 8.20334 
31 1 4.04116 1.77042 0.819827 
32 1 3.19863 2.43712 0.73737 
33 1 4.79377 1.62473 0.0439923 
34 1 5.75833 2.28162 0.0510228 
35 1 5.76318 1.50903 0.964376 
36 1 5.0421 2.33783 0.814896 
37 1 6.59965 1.55534 0.0674847 
38 1 7.45959 2.31475 0.0135138 
39 1 7.50312 1.63161 0.830439 
40 1 6.70205 2.31765 0.879273 
41 1 8.02025 3.52845 0.301367 
42 1 0.760546 4.2691 0.0564596 
43 1 0.824216 3.30249 0.695109 
44 1 0.108079 4.46757 0.855614 
45 1 1.71456 3.2968 8.26869 
46 1 2.49248 4.08741 0.028522 
47 1 2.46067 3.20027 0.708991 
48 1 1.73587 4.03057 0.739011 
49 1 3.30931 3.25958 8.16233 
50 1 4.19263 4.01317 0.00642795 
51 1 4.14101 3.12603 0.739605 
52 1 3.32615 4.02665 0.727788 
53 1 4.97342 3.13682 0.0240857 
54 1 5.9302 4.19152 0.0159638 
55 1 5.84549 3.2336 0.77844 
56 1 5.03482 4.03961 0.696265 
57 1 6.79761 3.27811 0.100694 
58 1 7.2965 4.27906 0.027431 
59 1 7.4565 3.01407 1.02112 
60 1 6.63923 4.14512 0.896208 
61 1 8.12971 5.13061 0.00953295 
62 1 0.688926 5.83925 8.05245 
63 1 0.890246 5.26213 0.710793 
64 1 0.00424891 5.96902 0.99767 
65 1 1.66044 5.03816 0.0886284 
66 1 2.47382 5.89142 8.17121 
67 1 2.5813 4.85665 0.651636 
68 1 1.78918 5.87085 0.777675 
69 1 3.3757 4.85774 8.2509 
70 1 4.36022 5.75896 8.12018 
71 1 4.25601 4.94417 0.499579 
72 1 3.36789 5.60616 0.657881 
73 1 5.07989 4.98794 8.23138 
74 1 5.64414 5.8201 8.23583 
75 1 5.85622 4.96477 0.897646 
76 1 5.02065 5.8235 0.803394 
77 1 6.59709 5.17872 0.0755223 
78 1 7.33059 5.96053 0.0662359 
79 1 7.39974 5.14189 0.846427 
80 1 6.56705 5.98914 0.820522 
81 1 0.0863028 6.65952 8.24166 
82 1 0.71305 7.49976 8.08214 
83 1 0.806581 6.54447 0.709025 
84 1 0.0620955 7.44222 0.71501 
85 1 1.49776 6.51445 8.06699 
86 1 2.62654 7.53101 0.31831 
87 1 2.88319 6.69223 0.866116 
88 1 1.57354 7.27668 0.819983 
89 1 3.2547 6.68044 8.04171 
90 1 4.02411 7.37109 0.133492 
91 1 4.14504 6.52157 0.800152 
92 1 3.53453 7.58536 0.955316 
93 1 4.89193 6.6266 8.25586 
94 1 5.63435 7.43121 0.110211 
95 1 5.73305 6.61608 0.902798 
96 1 4.86378 7.48392 0.818468 
97 1 6.53928 6.70477 8.07985 
98 1 7.27552 7.53125 8.12324 
99 1 7.44986 6.7002 0.77287 
100 1 6.64909 7.38346 0.901799 
101 1 0.117778 8.18211 1.68697 
102 1 0.804834 0.820806 1.67119 
103 1 0.79701 8.25283 2.64002 
104 1 0.0016927 0.737827 2.39859 
105 1 1.66158 0.120497 1.86481 
106 1 2.37295 0.912383 1.83623 
107 1 2.58472 0.0962205 2.51644 
108 1 1.47352 0.974009 2.59878 
109 1 3.34225 0.0675102 1.78625 
110 1 4.07836 0.835161 1.66461 
111 1 4.05211 0.0666756 2.48995 
112 1 3.41679 0.914713 2.54225 
113 1 4.90944 8.1421 1.62247 
114 1 5.79679 0.620109 1.64745 
115 1 5.73388 8.19385 2.48204 
116 1 4.99095 0.624219 2.41812 
117 1 6.55561 8.09091 1.69146 
118 1 7.50041 0.819297 1.56382 
119 1 7.42424 8.15834 2.39367 
120 1 6.73642 0.781928 2.41871 
121 1 0.152809 1.82824 1.6146 
122 1 0.631785 2.75735 1.69182 
123 1 0.683517 1.58709 2.42083 
124 1 0.0303058 2.47851 2.59456 
125 1 1.58099 1.56536 1.64461 
126 1 2.49837 2.43119 1.59162 
127 1 2.50198 1.71523 2.55246 
128 1 1.4758 2.41283 2.31561 
129 1 3.31626 1.66311 1.63722 
130 1 4.04334 2.47952 1.6818 
131 1 4.04611 1.69676 2.4444 
132 1 3.24978 2.46942 2.38348 
133 1 4.79318 1.74558 1.73264 
134 1 5.78458 2.34436 1.61771 
135 1 5.61273 1.56437 2.38696 
136 1 5.01317 2.54557 2.50823 
137 1 6.67029 1.61197 1.64978 
138 1 7.37349 2.35 1.81501 
139 1 7.55339 1.60364 2.51073 
140 1 6.49834 2.40458 2.52126 
141 1 0.0443536 3.55936 1.4422 
142 1 1.02962 4.066 1.55715 
143 1 0.78468 3.37733 2.48825 
144 1 8.12125 4.0398 2.65025 
145 1 1.58376 3.25893 1.69934 
146 1 2.45595 4.27741 1.55629 
147 1 2.62535 3.43774 2.34282 
148 1 1.76342 4.19595 2.40022 
149 1 3.44103 3.28482 1.59931 
150 1 4.26975 4.03552 1.56767 
151 1 4.21799 3.28296 2.40055 
152 1 3.3946 4.21449 2.33808 
153 1 4.89169 3.19364 1.53204 
154 1 5.70142 3.96228 1.5802 
155 1 5.81828 3.24097 2.50186 
156 1 4.94484 4.06671 2.39322 
157 1 6.5999 3.21062 1.67179 
158 1 7.49179 4.21489 1.6685 
159 1 7.35763 3.36382 2.2926 
160 1 6.55609 4.02168 2.47714 
161 1 0.115049 5.10038 1.72762 
162 1 1.00911 5.8678 1.64079 
163 1 0.950917 5.06434 2.33401 
164 1 0.126744 5.94851 2.4651 
165 1 1.72354 5.07081 1.50319 
166 1 2.55255 5.78373 1.52336 
167 1 2.63056 4.89061 2.43983 
168 1 1.80038 5.74053 2.47642 
169 1 3.38996 4.87735 1.44928 
170 1 4.22787 5.62755 1.59457 
171 1 4.38182 4.97553 2.51463 
172 1 3.49512 5.66411 2.5067 
173 1 5.02536 4.93994 1.56558 
174 1 5.75797 5.7523 1.58258 
175 1 5.73325 4.66653 2.48125 
176 1 5.07455 5.79749 2.4539 
177 1 6.46466 4.81351 1.68378 
178 1 7.51376 5.86967 1.74553 
179 1 7.31762 4.90885 2.63781 
180 1 6.41892 5.60438 2.48956 
181 1 0.11501 6.83105 1.62308 
182 1 0.987859 7.56943 1.82977 
183 1 1.20016 6.61082 2.43385 
184 1 0.142767 7.39112 2.52077 
185 1 1.96555 6.80772 1.68429 
186 1 2.85432 7.36774 1.75367 
187 1 2.65508 6.60333 2.53159 
188 1 2.02666 7.48631 2.47571 
189 1 3.57778 6.5574 1.80784 
190 1 4.18532 7.44835 1.93907 
191 1 4.21821 6.77897 2.71432 
192 1 3.40572 7.47896 2.68434 
193 1 4.85467 6.59966 1.56724 
194 1 5.76219 7.2924 1.77624 
195 1 5.67735 6.52616 2.57023 
196 1 5.03586 7.46107 2.58251 
197 1 6.52122 6.5904 1.76977 
198 1 7.4664 7.28941 1.71195 
199 1 7.41561 6.68508 2.53934 
200 1 6.50409 7.37257 2.63068 
201 1 0.00373604 0.0260956 3.29438 
202 1 0.693264 0.82273 3.42902 
203 1 0.727953 8.20547 4.024 
204 1 0.00211524 0.874043 4.22469 
205 1 1.71942 0.0718212 3.26999 
206 1 2.44316 0.957007 3.37805 
207 1 2.44474 0.0760664 4.18485 
208 1 1.57866 0.777578 4.09986 
209 1 3.2497 0.238373 3.32562 
210 1 4.21785 0.860355 3.25138 
211 1 4.12666 0.142624 4.03584 
212 1 3.30559 0.864638 4.1393 
213 1 4.96203 8.24416 3.32179 
214 1 5.6759 0.813591 3.27747 
215 1 5.77005 0.0548991 4.07626 
216 1 4.99317 0.727393 4.14479 
217 1 6.57786 0.0673184 3.38502 
218 1 7.38162 0.965219 3.48805 
219 1 7.53114 0.0329978 4.08888 
220 1 6.60043 0.845025 4.16345 
221 1 8.25193 1.6825 3.40439 
222 1 0.803381 2.68887 3.31717 
223 1 0.775785 1.60918 4.12257 
224 1 0.11245 2.41205 4.21652 
225 1 1.53598 1.84666 3.30459 
226 1 2.57354 2.39967 3.28808 
227 1 2.50932 1.7859 4.127 
228 1 1.67282 2.73242 3.94201 
229 1 3.33821 1.52068 3.43767 
230 1 4.20255 2.37182 3.28866 
231 1 4.05674 1.68797 4.16992 
232 1 3.29927 2.52633 4.18554 
233 1 4.88741 1.66597 3.26503 
234 1 5.75487 2.37172 3.22387 
235 1 5.84502 1.61052 3.98361 
236 1 4.87788 2.49219 4.06086 
237 1 6.52835 1.52841 3.1497 
238 1 7.25829 2.29785 3.20236 
239 1 7.37327 1.75561 4.08956 
240 1 6.62302 2.58149 4.04382 
241 1 8.18673 3.40446 3.44788 
242 1 0.781972 4.01065 3.44948 
243 1 0.646609 3.2857 4.23079 
244 1 8.08286 4.07529 4.20202 
245 1 1.65398 3.29164 3.06965 
246 1 2.44113 4.14442 3.27956 
247 1 2.52188 3.30286 3.90099 
248 1 1.64009 4.01007 4.09806 
249 1 3.4235 3.2263 3.23423 
250 1 4.2189 4.05046 3.1552 
251 1 4.13478 3.26009 4.10263 
252 1 3.40829 3.98627 4.09828 
253 1 5.07909 3.23607 3.25964 
254 1 5.80831 4.08334 3.34897 
255 1 5.73252 3.33123 4.23979 
256 1 5.0488 4.09974 4.18721 
257 1 6.507 3.29088 3.15687 
258 1 7.35021 4.14175 3.42098 
259 1 7.21439 3.37323 4.11144 
260 1 6.42798 4.13285 4.17907 
261 1 0.118291 4.98678 3.09905 
262 1 0.990081 5.99475 3.38187 
263 1 0.815385 4.98232 4.06448 
264 1 0.0831111 5.93424 4.04684 
265 1 1.60339 4.85689 3.23648 
266 1 2.66726 5.64999 3.27952 
267 1 2.50772 4.77736 4.16363 
268 1 1.85185 5.67345 4.14639 
269 1 3.4336 4.94404 3.35277 
270 1 4.24033 5.82292 3.35996 
271 1 4.26597 4.9157 4.22246 
272 1 3.3818 5.72504 4.22747 
273 1 5.05573 4.96827 3.39104 
274 1 5.83934 5.74021 3.40314 
275 1 5.69219 4.94587 4.30135 
276 1 4.89716 5.81604 4.18907 
277 1 6.51663 4.92291 3.40712 
278 1 7.45134 5.7585 3.40199 
279 1 7.41193 5.00454 4.16704 
280 1 6.57947 5.7472 4.21397 
281 1 0.0183703 6.67067 3.23819 
282 1 0.936004 7.39993 3.24154 
283 1 0.848902 6.73191 4.10195 
284 1 0.00755507 7.38852 4.20754 
285 1 1.87842 6.58006 3.39081 
286 1 2.58277 7.48397 3.43221 
287 1 2.56122 6.61465 4.11795 
288 1 1.68538 7.51681 4.10544 
289 1 3.3512 6.52049 3.29463 
290 1 4.17532 7.52348 3.39927 
291 1 4.12908 6.66327 4.15542 
292 1 3.32856 7.3797 4.23642 
293 1 5.06832 6.54306 3.43066 
294 1 5.78038 7.50676 3.43816 
295 1 5.78984 6.53626 4.17884 
296 1 4.96127 7.47012 4.20762 
297 1 6.61614 6.60582 3.36858 
298 1 7.47237 7.49974 3.32388 
299 1 7.53193 6.64487 4.05784 
300 1 6.62614 7.33719 4.15438 
301 1 8.25379 8.16037 4.97158 
302 1 0.823885 0.829183 4.99835 
303 1 0.896433 8.20984 5.77111 
304 1 8.26262 0.768876 5.66597 
305 1 1.66516 0.00386651 4.93918 
306 1 2.49648 0.907796 4.86782 
307 1 2.41575 8.23777 5.76355 
308 1 1.73447 0.99386 5.70955 
309 1 3.24871 8.26686 4.85142 
310 1 4.01865 0.995036 4.91862 
311 1 4.15275 0.123209 5.62897 
312 1 3.21359 0.767024 5.63468 
313 1 5.0819 0.081837 5.08493 
314 1 5.74872 0.964355 4.94677 
315 1 5.85416 0.173782 5.72429 
316 1 4.86086 0.944399 5.73418 
317 1 6.54946 8.22606 4.92566 
318 1 7.41879 0.893866 4.93785 
319 1 7.25169 0.0208181 5.68463 
320 1 6.53858 0.916039 5.77978 
321 1 8.23287 1.71454 5.09434 
322 1 0.985651 2.51051 4.91756 
323 1 0.878803 1.70527 5.77739 
324 1 0.137902 2.55467 5.85234 
325 1 1.68742 1.53757 4.7383 
326 1 2.43761 2.80086 4.84595 
327 1 2.5231 1.71011 5.58625 
328 1 1.79371 2.54685 5.77023 
329 1 3.24402 1.83062 4.8938 
330 1 4.22748 2.6031 4.98579 
331 1 4.04958 1.7137 5.61236 
332 1 3.31584 2.52113 5.88131 
333 1 4.97725 1.68217 4.80864 
334 1 5.73539 2.40037 4.87963 
335 1 5.68868 1.55429 5.83864 
336 1 4.94244 2.36469 5.7117 
337 1 6.59193 1.66037 4.93657 
338 1 7.43048 2.49309 4.95267 
339 1 7.35312 1.75698 5.86987 
340 1 6.53765 2.41288 5.8102 
341 1 8.18077 3.25658 5.08115 
342 1 0.642445 4.13832 4.94189 
343 1 0.796021 3.39574 5.73604 
344 1 8.2063 4.16575 5.80811 
345 1 1.49278 3.41169 5.00788 
346 1 2.56317 3.96758 4.9078 
347 1 2.52775 3.41058 5.92234 
348 1 1.67102 4.14621 5.68587 
349 1 3.30653 3.33604 5.16134 
350 1 4.1996 4.07361 4.94615 
351 1 4.27682 3.20501 5.90321 
352 1 3.43262 4.19082 5.86546 
353 1 4.98261 3.2963 4.93358 
354 1 5.73961 4.11726 4.95845 
355 1 5.65821 3.17986 5.86223 
356 1 4.94772 4.10898 5.76585 
357 1 6.50262 3.11185 5.04758 
358 1 7.25612 3.89744 4.92145 
359 1 7.34452 3.28021 5.87129 
360 1 6.5993 4.14384 5.89279 
361 1 8.19601 5.1651 4.93217 
362 1 0.856722 5.94621 4.98302 
363 1 0.747367 4.91406 5.74637 
364 1 0.0534009 5.83407 5.77787 
365 1 1.61152 5.07497 4.93531 
366 1 2.50831 5.74775 5.18738 
367 1 2.39864 4.85632 5.70711 
368 1 1.71877 5.7799 5.92115 
369 1 3.29437 4.90721 4.9818 
370 1 4.19413 5.77085 4.94732 
371 1 4.08473 5.00155 5.70292 
372 1 3.38825 5.75656 5.92166 
373 1 5.04198 4.98352 5.12762 
374 1 5.74612 5.69805 5.04834 
375 1 5.83863 5.04695 5.9388 
376 1 4.96547 5.82804 5.8741 
377 1 6.51722 4.90915 4.89416 
378 1 7.27877 5.94395 4.94306 
379 1 7.48527 4.97339 5.73306 
380 1 6.6131 6.05744 5.79156 
381 1 8.19412 6.58224 5.02148 
382 1 0.832729 7.27525 4.9648 
383 1 0.750159 6.63774 5.94167 
384 1 0.00839259 7.27652 5.78608 
385 1 1.77866 6.44438 4.90131 
386 1 2.30075 7.41963 4.95223 
387 1 2.41459 6.58227 5.8312 
388 1 1.62963 7.34607 5.80046 
389 1 3.21887 6.62113 5.06221 
390 1 3.98202 7.483 5.02814 
391 1 4.00096 6.65112 6.05287 
392 1 3.27377 7.37998 5.98878 
393 1 4.86502 6.53962 5.01469 
394 1 5.78745 7.44133 4.96329 
395 1 5.74201 6.63293 5.77388 
396 1 4.82499 7.50307 5.64046 
397 1 6.53659 6.71942 5.07833 
398 1 7.35057 7.49633 4.97729 
399 1 7.38038 6.73979 5.71729 
400 1 6.46985 7.54983 5.81318 
401 1 8.13495 8.17774 6.46206 
402 1 0.739548 0.762598 6.45 
403 1 0.793696 0.127915 7.41436 
404 1 8.15951 0.804211 7.5144 
405 1 1.59247 0.0950616 6.54886 
406 1 2.42311 0.824936 6.53532 
407 1 2.6298 8.19662 7.50398 
408 1 1.82927 0.688864 7.54549 
409 1 3.38733 0.0600781 6.46963 
410 1 4.14358 0.905709 6.52897 
411 1 4.15415 8.21797 7.41157 
412 1 3.32664 0.731387 7.45059 
413 1 4.97966 0.180792 6.53196 
414 1 5.83155 0.77499 6.63009 
415 1 5.63944 0.204603 7.41788 
416 1 4.87781 0.898235 7.49556 
417 1 6.64013 0.133038 6.59152 
418 1 7.45407 0.812502 6.3826 
419 1 7.4267 0.0539253 7.32511 
420 1 6.59051 0.950898 7.47208 
421 1 8.11307 1.67977 6.51674 
422 1 0.962762 2.52303 6.57274 
423 1 0.83684 1.59631 7.22415 
424 1 8.21024 2.41994 7.50803 
425 1 1.79758 1.68185 6.6134 
426 1 2.56833 2.57212 6.60051 
427 1 2.58553 1.55039 7.34982 
428 1 1.71877 2.59218 7.37641 
429 1 3.13366 1.58114 6.43875 
430 1 4.18716 2.45355 6.61313 
431 1 4.10157 1.61251 7.29396 
432 1 3.29781 2.34363 7.3233 
433 1 5.01515 1.6564 6.72635 
434 1 5.74197 2.45883 6.72403 
435 1 5.86368 1.69907 7.46752 
436 1 4.9572 2.38097 7.44474 
437 1 6.56915 1.61054 6.61171 
438 1 7.48287 2.48483 6.78625 
439 1 7.40984 1.58922 7.46943 
440 1 6.73484 2.46697 7.52009 
441 1 0.0576853 3.32656 6.61939 
442 1 0.728643 4.19721 6.66934 
443 1 0.793144 3.34167 7.5201 
444 1 8.21805 4.07199 7.62295 
445 1 1.65493 3.30271 6.51315 
446 1 2.61918 4.29833 6.61583 
447 1 2.31168 3.41457 7.24454 