[1740658761.862461] [cn8:1164898:0]          parser.c:1906 UCX  WARN  unused env variable: UCX_ROOT (set UCX_WARN_UNUSED_ENV_VARS=n to suppress this warning)

     Program PWSCF v.7.1 starts on 27Feb2025 at 14:19:22 

     This program is part of the open-source Quantum ESPRESSO suite
     for quantum simulation of materials; please cite
         "P. Giannozzi et al., J. Phys.:Condens. Matter 21 395502 (2009);
         "P. Giannozzi et al., J. Phys.:Condens. Matter 29 465901 (2017);
         "P. Giannozzi et al., J. Chem. Phys. 152 154105 (2020);
          URL http://www.quantum-espresso.org", 
     in publications or presentations arising from this work. More details at
     http://www.quantum-espresso.org/quote

     Parallel version (MPI & OpenMP), running on       6 processor cores
     Number of MPI processes:                 6
     Threads/MPI process:                     1

     MPI processes distributed on     1 nodes
     125780 MiB available memory on the printing compute node when the environment starts

     Reading input from nscf_dos_graphene.in
     Message from routine read_cards :
     DEPRECATED: no units specified in CELL_PARAMETERS card

     Current dimensions of program PWSCF are:
     Max number of different atomic species (ntypx) = 10
     Max number of k-points (npk) =  40000
     Max angular momentum in pseudopotentials (lmaxx) =  4
     Message from routine volume:
     axis vectors are left-handed
     Message from routine cell_base_init:
     DEPRECATED: use true lattice parameter, not A to a.u. conversion factor

     Atomic positions and unit cell read from directory:
     ./OUT/graphene.save/
     Atomic positions from file used, from input discarded

     Message from routine volume:
     axis vectors are left-handed
     file C.pbe.UPF: wavefunction(s)  2S 2P renormalized
     file K.pbe.UPF: wavefunction(s)  3S renormalized
     Message from routine setup:
     using ibrav=0 with symmetry is DISCOURAGED, use correct ibrav instead

     R & G space division:  proc/nbgrp/npool/nimage =       6
     Subspace diagonalization in iterative solution of the eigenvalue problem:
     a serial algorithm will be used


     Parallelization info
     --------------------
     sticks:   dense  smooth     PW     G-vecs:    dense   smooth      PW
     Min        1193     478    128               121059    30606    4386
     Max        1194     479    129               121064    30611    4393
     Sum        7159    2869    769               726363   183649   26331

     Using Slab Decomposition



     bravais-lattice index     =            0
     lattice parameter (alat)  =       1.0000  a.u.
     unit-cell volume          =    8279.0702 (a.u.)^3
     number of atoms/cell      =           33
     number of atomic types    =            2
     number of electrons       =       137.00
     number of Kohn-Sham states=           83
     kinetic-energy cutoff     =      30.0000  Ry
     charge density cutoff     =     300.0000  Ry
     Exchange-correlation= PBE
                           (   1   4   3   4   0   0   0)

     celldm(1)=   1.000000  celldm(2)=   0.000000  celldm(3)=   0.000000
     celldm(4)=   0.000000  celldm(5)=   0.000000  celldm(6)=   0.000000

     crystal axes: (cart. coord. in units of alat)
               a(1) = (  16.112528   9.302573   0.000000 )  
               a(2) = (  16.112528  -9.302573   0.000000 )  
               a(3) = (   0.000000   0.000000  27.617529 )  

     reciprocal axes: (cart. coord. in units 2 pi/alat)
               b(1) = (  0.031032  0.053749 -0.000000 )  
               b(2) = (  0.031032 -0.053749 -0.000000 )  
               b(3) = ( -0.000000 -0.000000  0.036209 )  


     PseudoPot. # 1 for C  read from file:
     ../Pseudo/C.pbe.UPF
     MD5 check sum: 00fb224312de0c5b6853bd333518df6f
     Pseudo is Ultrasoft, Zval =  4.0
     Generated by new atomic code, or converted to UPF format
     Using radial grid of  627 points,  4 beta functions with: 
                l(1) =   0
                l(2) =   0
                l(3) =   1
                l(4) =   1
     Q(r) pseudized with 0 coefficients 


     PseudoPot. # 2 for K  read from file:
     ../Pseudo/K.pbe.UPF
     MD5 check sum: 897b700350bb708b0563e904352feb48
     Pseudo is Ultrasoft + core correction, Zval =  9.0
     Generated using &quot;atomic&quot; code by A. Dal Corso  v.6.2.2
     Using radial grid of 1165 points,  6 beta functions with: 
                l(1) =   0
                l(2) =   0
                l(3) =   1
                l(4) =   1
                l(5) =   2
                l(6) =   2
     Q(r) pseudized with 0 coefficients 


     atomic species   valence    mass     pseudopotential
        C              4.00    12.01070     C ( 1.00)
        K              9.00    39.09800     K ( 1.00)

      2 Sym. Ops. (no inversion) found



   Cartesian axes

     site n.     atom                  positions (alat units)
         1           C   tau(   1) = (  -0.0272688   0.0000000   0.0166850  )
         2           C   tau(   2) = (   2.6576007   0.0000000   0.0108339  )
         3           C   tau(   3) = (   4.0000192   2.3246179   0.0132603  )
         4           C   tau(   4) = (   6.6834422   2.3273430   0.0113017  )
         5           C   tau(   5) = (   8.0257569   4.6531959   0.0158920  )
         6           C   tau(   6) = (  10.7108275   4.6570881   0.0136702  )
         7           C   tau(   7) = (  12.0569021   6.9798494   0.0205347  )
         8           C   tau(   8) = (  14.7420621   6.9793529   0.0200615  )
         9           C   tau(   9) = (   4.0000192  -2.3246179   0.0132603  )
        10           C   tau(  10) = (   6.6834422  -2.3273430   0.0113017  )
        11           C   tau(  11) = (   8.0226645   0.0000000   0.0049280  )
        12           C   tau(  12) = (  10.7087133   0.0000000  -0.0190212  )
        13           C   tau(  13) = (  12.0543017   2.3315333  -0.0096858  )
        14           C   tau(  14) = (  14.7456069   2.3308629   0.0048482  )
        15           C   tau(  15) = (  16.0880234   4.6563066   0.0205634  )
        16           C   tau(  16) = (  18.7730277   4.6520590   0.0193359  )
        17           C   tau(  17) = (   8.0257569  -4.6531959   0.0158920  )
        18           C   tau(  18) = (  10.7108275  -4.6570881   0.0136702  )
        19           C   tau(  19) = (  12.0543017  -2.3315333  -0.0096858  )
        20           C   tau(  20) = (  14.7456069  -2.3308629   0.0048482  )
        21           C   tau(  21) = (  16.0908536   0.0000000   0.0115738  )
        22           C   tau(  22) = (  18.7751727   0.0000000   0.0275116  )
        23           C   tau(  23) = (  20.1146665   2.3271388   0.0244423  )
        24           C   tau(  24) = (  22.7982580   2.3244603   0.0230497  )
        25           C   tau(  25) = (  12.0569021  -6.9798494   0.0205347  )
        26           C   tau(  26) = (  14.7420621  -6.9793529   0.0200615  )
        27           C   tau(  27) = (  16.0880234  -4.6563066   0.0205634  )
        28           C   tau(  28) = (  18.7730277  -4.6520590   0.0193359  )
        29           C   tau(  29) = (  20.1146665  -2.3271388   0.0244423  )
        30           C   tau(  30) = (  22.7982580  -2.3244603   0.0230497  )
        31           C   tau(  31) = (  24.1407406   0.0000000   0.0218330  )
        32           C   tau(  32) = (  26.8254397   0.0000000   0.0213825  )
        33           K   tau(  33) = (  12.9721096   0.0000000   5.0732307  )

     number of k points=   111  Gaussian smearing, width (Ry)=  0.0500

     Number of k-points >= 100: set verbosity='high' to print them.

     Dense  grid:   726363 G-vectors     FFT dimensions: ( 108, 108, 160)

     Smooth grid:   183649 G-vectors     FFT dimensions: (  72,  72, 100)

     Estimated max dynamical RAM per process >     467.50 MB

     Estimated total dynamical RAM >       2.74 GB

     The potential is recalculated from file :
     ./OUT/graphene.save/charge-density


     negative rho (up, down):  1.543E-05 0.000E+00
     Starting wfcs are  136 randomized atomic wfcs

     Band Structure Calculation
     Davidson diagonalization with overlap

     ethr =  7.30E-10,  avg # of iterations = 46.4

     total cpu time spent up to now is     1122.7 secs

     End of band structure calculation

     Number of k-points >= 100: set verbosity='high' to print the bands.

     the Fermi energy is     0.0197 ev
     (compare with:    -0.0291 eV, computed in scf)

     Writing all to output data dir ./OUT/graphene.save/

     init_run     :      2.83s CPU      3.44s WALL (       1 calls)
     electrons    :   1108.10s CPU   1118.19s WALL (       1 calls)

     Called by init_run:
     wfcinit      :      0.00s CPU      0.00s WALL (       1 calls)
     potinit      :      0.55s CPU      0.68s WALL (       1 calls)
     hinit0       :      1.53s CPU      1.76s WALL (       1 calls)

     Called by electrons:
     c_bands      :   1108.09s CPU   1118.18s WALL (       1 calls)
     v_of_rho     :      0.22s CPU      0.25s WALL (       1 calls)
     newd         :      0.48s CPU      0.63s WALL (       1 calls)

     Called by c_bands:
     init_us_2    :      0.57s CPU      0.57s WALL (     111 calls)
     init_us_2:cp :      0.57s CPU      0.57s WALL (     111 calls)
     cegterg      :   1026.96s CPU   1032.68s WALL (     315 calls)

     Called by *egterg:
     cdiaghg      :     58.76s CPU     59.60s WALL (    5265 calls)
     h_psi        :    747.43s CPU    752.33s WALL (    5580 calls)
     s_psi        :     70.37s CPU     70.65s WALL (    5580 calls)
     g_psi        :      6.08s CPU      6.11s WALL (    5154 calls)

     Called by h_psi:
     h_psi:calbec :     67.15s CPU     67.67s WALL (    5580 calls)
     vloc_psi     :    605.59s CPU    609.65s WALL (    5580 calls)
     add_vuspsi   :     72.82s CPU     73.13s WALL (    5580 calls)

     General routines
     calbec       :     67.12s CPU     67.66s WALL (    5580 calls)
     fft          :      0.46s CPU      0.64s WALL (      13 calls)
     ffts         :      0.29s CPU      0.29s WALL (       1 calls)
     fftw         :    552.89s CPU    556.72s WALL (  372468 calls)
     interpolate  :      0.31s CPU      0.31s WALL (       1 calls)
     davcio       :      0.03s CPU      3.18s WALL (     222 calls)

     Parallel routines

     PWSCF        :  18m33.36s CPU  19m16.83s WALL


   This run was terminated on:  14:38:38  27Feb2025            

=------------------------------------------------------------------------------=
   JOB DONE.
=------------------------------------------------------------------------------=
[1740658761.862474] [cn8:1164899:0]          parser.c:1906 UCX  WARN  unused env variable: UCX_ROOT (set UCX_WARN_UNUSED_ENV_VARS=n to suppress this warning)
[1740658761.862476] [cn8:1164901:0]          parser.c:1906 UCX  WARN  unused env variable: UCX_ROOT (set UCX_WARN_UNUSED_ENV_VARS=n to suppress this warning)
[1740658761.862473] [cn8:1164902:0]          parser.c:1906 UCX  WARN  unused env variable: UCX_ROOT (set UCX_WARN_UNUSED_ENV_VARS=n to suppress this warning)
[1740658761.862474] [cn8:1164903:0]          parser.c:1906 UCX  WARN  unused env variable: UCX_ROOT (set UCX_WARN_UNUSED_ENV_VARS=n to suppress this warning)
[1740658761.862461] [cn8:1164900:0]          parser.c:1906 UCX  WARN  unused env variable: UCX_ROOT (set UCX_WARN_UNUSED_ENV_VARS=n to suppress this warning)
