[1740658563.161072] [cn1:1550779:0]          parser.c:1906 UCX  WARN  unused env variable: UCX_ROOT (set UCX_WARN_UNUSED_ENV_VARS=n to suppress this warning)

     Program PWSCF v.7.1 starts on 27Feb2025 at 14:16: 3 

     This program is part of the open-source Quantum ESPRESSO suite
     for quantum simulation of materials; please cite
         "P. Giannozzi et al., J. Phys.:Condens. Matter 21 395502 (2009);
         "P. Giannozzi et al., J. Phys.:Condens. Matter 29 465901 (2017);
         "P. Giannozzi et al., J. Chem. Phys. 152 154105 (2020);
          URL http://www.quantum-espresso.org", 
     in publications or presentations arising from this work. More details at
     http://www.quantum-espresso.org/quote

     Parallel version (MPI & OpenMP), running on       4 processor cores
     Number of MPI processes:                 4
     Threads/MPI process:                     1

     MPI processes distributed on     1 nodes
     56151 MiB available memory on the printing compute node when the environment starts

     Reading input from scf_graphene.in
Warning: card  &CELL ignored
Warning: card      CELL_DYNAMICS = 'BFGS', ignored
Warning: card      CELL_DOFREE   = '2DXY', ignored
Warning: card      PRESS_CONV_THR = 0.1 ignored
Warning: card  /	 ignored
     Message from routine read_cards :
     DEPRECATED: no units specified in CELL_PARAMETERS card

     Current dimensions of program PWSCF are:
     Max number of different atomic species (ntypx) = 10
     Max number of k-points (npk) =  40000
     Max angular momentum in pseudopotentials (lmaxx) =  4
     Message from routine volume:
     axis vectors are left-handed
     Message from routine cell_base_init:
     DEPRECATED: use true lattice parameter, not A to a.u. conversion factor
     file C.pbe.UPF: wavefunction(s)  2S 2P renormalized
     file K.pbe.UPF: wavefunction(s)  3S renormalized
     Message from routine setup:
     using ibrav=0 with symmetry is DISCOURAGED, use correct ibrav instead

     R & G space division:  proc/nbgrp/npool/nimage =       4
     Subspace diagonalization in iterative solution of the eigenvalue problem:
     a serial algorithm will be used


     Parallelization info
     --------------------
     sticks:   dense  smooth     PW     G-vecs:    dense   smooth      PW
     Min        1789     717    191               181589    45911    6377
     Max        1791     718    193               181593    45916    6379
     Sum        7159    2869    769               726363   183649   25513

     Using Slab Decomposition



     bravais-lattice index     =            0
     lattice parameter (alat)  =       1.0000  a.u.
     unit-cell volume          =    8279.0702 (a.u.)^3
     number of atoms/cell      =           33
     number of atomic types    =            2
     number of electrons       =       137.00
     number of Kohn-Sham states=           83
     kinetic-energy cutoff     =      30.0000  Ry
     charge density cutoff     =     300.0000  Ry
     scf convergence threshold =      1.0E-06
     mixing beta               =       0.7000
     number of iterations used =            8  plain     mixing
     Exchange-correlation= PBE
                           (   1   4   3   4   0   0   0)

     celldm(1)=   1.000000  celldm(2)=   0.000000  celldm(3)=   0.000000
     celldm(4)=   0.000000  celldm(5)=   0.000000  celldm(6)=   0.000000

     crystal axes: (cart. coord. in units of alat)
               a(1) = (  16.112528   9.302573   0.000000 )  
               a(2) = (  16.112528  -9.302573   0.000000 )  
               a(3) = (   0.000000   0.000000  27.617529 )  

     reciprocal axes: (cart. coord. in units 2 pi/alat)
               b(1) = (  0.031032  0.053749 -0.000000 )  
               b(2) = (  0.031032 -0.053749 -0.000000 )  
               b(3) = ( -0.000000 -0.000000  0.036209 )  


     PseudoPot. # 1 for C  read from file:
     ../Pseudo/C.pbe.UPF
     MD5 check sum: 00fb224312de0c5b6853bd333518df6f
     Pseudo is Ultrasoft, Zval =  4.0
     Generated by new atomic code, or converted to UPF format
     Using radial grid of  627 points,  4 beta functions with: 
                l(1) =   0
                l(2) =   0
                l(3) =   1
                l(4) =   1
     Q(r) pseudized with 0 coefficients 


     PseudoPot. # 2 for K  read from file:
     ../Pseudo/K.pbe.UPF
     MD5 check sum: 897b700350bb708b0563e904352feb48
     Pseudo is Ultrasoft + core correction, Zval =  9.0
     Generated using &quot;atomic&quot; code by A. Dal Corso  v.6.2.2
     Using radial grid of 1165 points,  6 beta functions with: 
                l(1) =   0
                l(2) =   0
                l(3) =   1
                l(4) =   1
                l(5) =   2
                l(6) =   2
     Q(r) pseudized with 0 coefficients 


     atomic species   valence    mass     pseudopotential
        C              4.00    12.01070     C ( 1.00)
        K              9.00    39.09800     K ( 1.00)

      2 Sym. Ops. (no inversion) found



   Cartesian axes

     site n.     atom                  positions (alat units)
         1           C   tau(   1) = (  -0.0272688   0.0000000   0.0166850  )
         2           C   tau(   2) = (   2.6576007   0.0000000   0.0108339  )
         3           C   tau(   3) = (   4.0000192   2.3246179   0.0132603  )
         4           C   tau(   4) = (   6.6834422   2.3273430   0.0113017  )
         5           C   tau(   5) = (   8.0257569   4.6531959   0.0158920  )
         6           C   tau(   6) = (  10.7108275   4.6570881   0.0136702  )
         7           C   tau(   7) = (  12.0569021   6.9798494   0.0205347  )
         8           C   tau(   8) = (  14.7420621   6.9793529   0.0200615  )
         9           C   tau(   9) = (   4.0000192  -2.3246179   0.0132603  )
        10           C   tau(  10) = (   6.6834422  -2.3273430   0.0113017  )
        11           C   tau(  11) = (   8.0226645   0.0000000   0.0049280  )
        12           C   tau(  12) = (  10.7087133   0.0000000  -0.0190212  )
        13           C   tau(  13) = (  12.0543017   2.3315333  -0.0096858  )
        14           C   tau(  14) = (  14.7456069   2.3308629   0.0048482  )
        15           C   tau(  15) = (  16.0880234   4.6563066   0.0205634  )
        16           C   tau(  16) = (  18.7730277   4.6520590   0.0193359  )
        17           C   tau(  17) = (   8.0257569  -4.6531959   0.0158920  )
        18           C   tau(  18) = (  10.7108275  -4.6570881   0.0136702  )
        19           C   tau(  19) = (  12.0543017  -2.3315333  -0.0096858  )
        20           C   tau(  20) = (  14.7456069  -2.3308629   0.0048482  )
        21           C   tau(  21) = (  16.0908536   0.0000000   0.0115738  )
        22           C   tau(  22) = (  18.7751727   0.0000000   0.0275116  )
        23           C   tau(  23) = (  20.1146665   2.3271388   0.0244423  )
        24           C   tau(  24) = (  22.7982580   2.3244603   0.0230497  )
        25           C   tau(  25) = (  12.0569021  -6.9798494   0.0205347  )
        26           C   tau(  26) = (  14.7420621  -6.9793529   0.0200615  )
        27           C   tau(  27) = (  16.0880234  -4.6563066   0.0205634  )
        28           C   tau(  28) = (  18.7730277  -4.6520590   0.0193359  )
        29           C   tau(  29) = (  20.1146665  -2.3271388   0.0244423  )
        30           C   tau(  30) = (  22.7982580  -2.3244603   0.0230497  )
        31           C   tau(  31) = (  24.1407406   0.0000000   0.0218330  )
        32           C   tau(  32) = (  26.8254397   0.0000000   0.0213825  )
        33           K   tau(  33) = (  12.9721096   0.0000000   5.0732307  )

     number of k points=     3  Gaussian smearing, width (Ry)=  0.0500
                       cart. coord. in units 2pi/alat
        k(    1) = (   0.0000000   0.0000000   0.0000000), wk =   0.5000000
        k(    2) = (  -0.0155159   0.0268743   0.0000000), wk =   1.0000000
        k(    3) = (  -0.0310318   0.0000000   0.0000000), wk =   0.5000000

     Dense  grid:   726363 G-vectors     FFT dimensions: ( 108, 108, 160)

     Smooth grid:   183649 G-vectors     FFT dimensions: (  72,  72, 100)

     Estimated max dynamical RAM per process >     945.28 MB

     Estimated total dynamical RAM >       3.69 GB

     Initial potential from superposition of free atoms

     starting charge     136.9795, renormalised to     137.0000

     negative rho (up, down):  1.439E-04 0.000E+00
     Starting wfcs are  136 randomized atomic wfcs

     total cpu time spent up to now is        7.7 secs

     per-process dynamical memory:   213.0 Mb

     Self-consistent Calculation

     iteration #  1     ecut=    30.00 Ry     beta= 0.70
     Davidson diagonalization with overlap
     ethr =  1.00E-02,  avg # of iterations =  2.0

     negative rho (up, down):  1.287E-04 0.000E+00

     total cpu time spent up to now is       17.0 secs

     total energy              =    -422.92665994 Ry
     estimated scf accuracy    <       3.48715615 Ry

     iteration #  2     ecut=    30.00 Ry     beta= 0.70
     Davidson diagonalization with overlap
     ethr =  2.55E-03,  avg # of iterations =  9.0

     negative rho (up, down):  9.632E-06 0.000E+00

     total cpu time spent up to now is       26.5 secs

     total energy              =    -423.38344137 Ry
     estimated scf accuracy    <       0.12987917 Ry

     iteration #  3     ecut=    30.00 Ry     beta= 0.70
     Davidson diagonalization with overlap
     ethr =  9.48E-05,  avg # of iterations = 11.3

     negative rho (up, down):  3.898E-05 0.000E+00

     total cpu time spent up to now is       37.4 secs

     total energy              =    -423.42230846 Ry
     estimated scf accuracy    <       0.07570762 Ry

     iteration #  4     ecut=    30.00 Ry     beta= 0.70
     Davidson diagonalization with overlap
     ethr =  5.53E-05,  avg # of iterations =  8.7

     negative rho (up, down):  2.672E-05 0.000E+00

     total cpu time spent up to now is       46.9 secs

     total energy              =    -423.43329723 Ry
     estimated scf accuracy    <       0.00450496 Ry

     iteration #  5     ecut=    30.00 Ry     beta= 0.70
     Davidson diagonalization with overlap
     ethr =  3.29E-06,  avg # of iterations =  7.0

     negative rho (up, down):  1.863E-05 0.000E+00

     total cpu time spent up to now is       57.1 secs

     total energy              =    -423.43407514 Ry
     estimated scf accuracy    <       0.00121569 Ry

     iteration #  6     ecut=    30.00 Ry     beta= 0.70
     Davidson diagonalization with overlap
     ethr =  8.87E-07,  avg # of iterations = 10.0

     negative rho (up, down):  1.731E-05 0.000E+00

     total cpu time spent up to now is       67.1 secs

     total energy              =    -423.43428459 Ry
     estimated scf accuracy    <       0.00095814 Ry

     iteration #  7     ecut=    30.00 Ry     beta= 0.70
     Davidson diagonalization with overlap
     ethr =  6.99E-07,  avg # of iterations =  3.0

     negative rho (up, down):  1.603E-05 0.000E+00

     total cpu time spent up to now is       75.1 secs

     total energy              =    -423.43445542 Ry
     estimated scf accuracy    <       0.00000955 Ry

     iteration #  8     ecut=    30.00 Ry     beta= 0.70
     Davidson diagonalization with overlap
     ethr =  6.97E-09,  avg # of iterations =  5.0

     negative rho (up, down):  1.569E-05 0.000E+00

     total cpu time spent up to now is       84.7 secs

     total energy              =    -423.43445988 Ry
     estimated scf accuracy    <       0.00000187 Ry

     iteration #  9     ecut=    30.00 Ry     beta= 0.70
     Davidson diagonalization with overlap
     ethr =  1.37E-09,  avg # of iterations =  3.0

     negative rho (up, down):  1.543E-05 0.000E+00

     total cpu time spent up to now is       93.0 secs

     End of self-consistent calculation

          k = 0.0000 0.0000 0.0000 ( 22945 PWs)   bands (ev):

   -33.1306 -20.1580 -18.7955 -18.7079 -18.7076 -18.6380 -18.6377 -18.6127
   -16.6282 -16.6278 -16.6034 -15.8602 -15.8589 -15.8535 -15.8533 -15.8209
   -15.8082 -14.8753 -14.8746 -14.8717 -13.8656 -13.8640 -13.8640 -11.1494
   -11.1493 -11.1447 -11.1445 -11.1102 -11.1035  -9.6298  -9.6269  -9.5721
    -9.5719  -9.5680  -9.5679  -8.3430  -8.0535  -8.0514  -8.0507  -8.0294
    -8.0292  -8.0136  -7.0440  -7.0436  -7.0399  -6.7200  -6.6544  -6.6536
    -6.5345  -6.5340  -6.4987  -5.6879  -5.6838  -5.6833  -5.6600  -5.6598
    -5.6415  -3.6522  -3.6519  -3.5179  -3.5178  -3.4350  -3.4336  -3.3875
    -3.3578  -3.0189  -3.0158  -3.0154   0.5464   0.9474   0.9479   0.9710
     2.0982   2.1014   2.1178   2.1207   2.2096   2.2384   2.3459   2.5053
     2.5332   2.5345   2.9419

          k =-0.0155 0.0269 0.0000 ( 22956 PWs)   bands (ev):

   -33.1306 -19.8357 -19.7405 -19.0531 -19.0387 -17.6392 -17.6090 -17.5972
   -17.5858 -16.9096 -16.8996 -16.6208 -16.5974 -16.5327 -15.5599 -15.5287
   -15.4972 -15.4753 -13.9358 -13.9268 -13.0718 -13.0636 -12.6514 -12.6305
   -12.6260 -12.6014 -11.3205 -11.3177 -10.3757 -10.3710  -9.6279  -9.6207
    -9.6196  -9.6188  -8.0954  -8.0809  -8.0340  -8.0152  -7.9628  -7.8398
    -7.2914  -7.2874  -7.2841  -7.2821  -7.0225  -7.0203  -6.8331  -6.8272
    -6.7029  -6.6538  -5.7721  -5.7637  -5.3892  -5.3637  -5.3565  -5.3368
    -5.0586  -5.0011  -4.6357  -4.5661  -4.3800  -4.3345  -3.3667  -3.2535
    -3.2270  -3.1544  -1.7158  -1.6848   0.2543   0.2831   0.6830   1.4194
     1.5186   1.5545   1.6509   1.7762   2.3408   2.5687   2.6765   3.0163
     3.1150   3.1700   3.1802

          k =-0.0310 0.0000 0.0000 ( 22956 PWs)   bands (ev):

   -33.1306 -19.8358 -19.7404 -19.0531 -19.0388 -17.6394 -17.6086 -17.5979
   -17.5854 -16.9130 -16.8963 -16.6208 -16.5980 -16.5318 -15.5607 -15.5289
   -15.4962 -15.4758 -13.9356 -13.9268 -13.0717 -13.0637 -12.6517 -12.6323
   -12.6241 -12.6013 -11.3203 -11.3177 -10.3759 -10.3710  -9.6281  -9.6204
    -9.6201  -9.6186  -8.0950  -8.0812  -8.0332  -8.0158  -7.9629  -7.8396
    -7.2911  -7.2876  -7.2840  -7.2823  -7.0227  -7.0203  -6.8332  -6.8275
    -6.7032  -6.6536  -5.7718  -5.7635  -5.3890  -5.3611  -5.3601  -5.3360
    -5.0581  -5.0013  -4.6353  -4.5663  -4.3808  -4.3342  -3.3664  -3.2594
    -3.2209  -3.1553  -1.7154  -1.6848   0.2550   0.2821   0.6827   1.4196
     1.5124   1.5603   1.6506   1.7760   2.3414   2.5708   2.6781   3.0132
     3.1166   3.1713   3.1793

     the Fermi energy is    -0.0291 ev

!    total energy              =    -423.43446012 Ry
     estimated scf accuracy    <       0.00000024 Ry
     smearing contrib. (-TS)   =      -0.04866513 Ry
     internal energy E=F+TS    =    -423.38579498 Ry

     The total energy is F=E-TS. E is the sum of the following terms:
     one-electron contribution =   -2571.17417065 Ry
     hartree contribution      =    1312.62162834 Ry
     xc contribution           =    -123.86432841 Ry
     ewald contribution        =     959.03107573 Ry

     convergence has been achieved in   9 iterations

     negative rho (up, down):  1.543E-05 0.000E+00

     Forces acting on atoms (cartesian axes, Ry/au):

     atom    1 type  1   force =     0.00044604    0.00000000    0.00038667
     atom    2 type  1   force =    -0.00009844    0.00000000    0.00057817
     atom    3 type  1   force =    -0.00018563    0.00026369    0.00029226
     atom    4 type  1   force =    -0.00028915   -0.00007860    0.00002000
     atom    5 type  1   force =    -0.00001022    0.00013320   -0.00000450
     atom    6 type  1   force =    -0.00045626    0.00071297    0.00008473
     atom    7 type  1   force =    -0.00007450    0.00006736    0.00001206
     atom    8 type  1   force =     0.00017284    0.00020779   -0.00030016
     atom    9 type  1   force =    -0.00018563   -0.00026369    0.00029226
     atom   10 type  1   force =    -0.00028915    0.00007860    0.00002000
     atom   11 type  1   force =    -0.00090033    0.00000000   -0.00001662
     atom   12 type  1   force =    -0.00056619    0.00000000   -0.00069644
     atom   13 type  1   force =    -0.00005323   -0.00015089   -0.00026548
     atom   14 type  1   force =    -0.00005373   -0.00017506    0.00047692
     atom   15 type  1   force =     0.00063387    0.00079642   -0.00011375
     atom   16 type  1   force =    -0.00056865    0.00056849    0.00039489
     atom   17 type  1   force =    -0.00001022   -0.00013320   -0.00000450
     atom   18 type  1   force =    -0.00045626   -0.00071297    0.00008473
     atom   19 type  1   force =    -0.00005323    0.00015089   -0.00026548
     atom   20 type  1   force =    -0.00005373    0.00017506    0.00047692
     atom   21 type  1   force =    -0.00058806    0.00000000    0.00066654
     atom   22 type  1   force =     0.00152348    0.00000000   -0.00018431
     atom   23 type  1   force =    -0.00002674   -0.00065334    0.00004353
     atom   24 type  1   force =     0.00014842    0.00014535   -0.00016813
     atom   25 type  1   force =    -0.00007450   -0.00006736    0.00001206
     atom   26 type  1   force =     0.00017284   -0.00020779   -0.00030016
     atom   27 type  1   force =     0.00063387   -0.00079642   -0.00011375
     atom   28 type  1   force =    -0.00056865   -0.00056849    0.00039489
     atom   29 type  1   force =    -0.00002674    0.00065334    0.00004353
     atom   30 type  1   force =     0.00014842   -0.00014535   -0.00016813
     atom   31 type  1   force =     0.00023258    0.00000000    0.00039796
     atom   32 type  1   force =    -0.00024288    0.00000000    0.00036532
     atom   33 type  2   force =     0.00171974    0.00000000   -0.00244202

     Total force =     0.004753     Total SCF correction =     0.001129
     SCF correction compared to forces is large: reduce conv_thr to get better values


     Computing stress (Cartesian axis) and pressure


     negative rho (up, down):  1.543E-05 0.000E+00
          total   stress  (Ry/bohr**3)                   (kbar)     P=        4.28
   0.00004696   0.00000000   0.00000106            6.91        0.00        0.16
   0.00000000   0.00004711   0.00000000            0.00        6.93        0.00
   0.00000106   0.00000000  -0.00000683            0.16        0.00       -1.00


     Writing all to output data dir ./OUT/graphene.save/

     init_run     :      7.17s CPU      7.51s WALL (       1 calls)
     electrons    :     81.19s CPU     85.59s WALL (       1 calls)
     forces       :      4.32s CPU      4.60s WALL (       1 calls)
     stress       :     15.32s CPU     15.91s WALL (       1 calls)

     Called by init_run:
     wfcinit      :      3.01s CPU      3.06s WALL (       1 calls)
     potinit      :      1.46s CPU      1.51s WALL (       1 calls)
     hinit0       :      1.71s CPU      1.74s WALL (       1 calls)

     Called by electrons:
     c_bands      :     54.49s CPU     55.08s WALL (       9 calls)
     sum_band     :     16.06s CPU     17.78s WALL (       9 calls)
     v_of_rho     :      3.71s CPU      3.96s WALL (      10 calls)
     newd         :      7.18s CPU      8.95s WALL (      10 calls)
     mix_rho      :      0.48s CPU      0.49s WALL (       9 calls)

     Called by c_bands:
     init_us_2    :      0.52s CPU      0.53s WALL (      63 calls)
     init_us_2:cp :      0.51s CPU      0.53s WALL (      63 calls)
     cegterg      :     52.81s CPU     53.37s WALL (      27 calls)

     Called by *egterg:
     cdiaghg      :      2.27s CPU      2.29s WALL (     204 calls)
     h_psi        :     40.11s CPU     40.49s WALL (     207 calls)
     s_psi        :      3.92s CPU      3.94s WALL (     207 calls)
     g_psi        :      0.25s CPU      0.25s WALL (     177 calls)

     Called by h_psi:
     h_psi:calbec :      3.55s CPU      3.57s WALL (     207 calls)
     vloc_psi     :     32.29s CPU     32.53s WALL (     207 calls)
     add_vuspsi   :      4.12s CPU      4.15s WALL (     207 calls)

     General routines
     calbec       :      5.10s CPU      5.13s WALL (     249 calls)
     fft          :      3.36s CPU      3.48s WALL (     153 calls)
     ffts         :      0.36s CPU      0.36s WALL (      19 calls)
     fftw         :     33.83s CPU     34.08s WALL (   15339 calls)
     interpolate  :      0.55s CPU      0.56s WALL (      10 calls)

     Parallel routines

     PWSCF        :   1m48.27s CPU   1m55.05s WALL


   This run was terminated on:  14:17:58  27Feb2025            

=------------------------------------------------------------------------------=
   JOB DONE.
=------------------------------------------------------------------------------=
[1740658563.161072] [cn1:1550780:0]          parser.c:1906 UCX  WARN  unused env variable: UCX_ROOT (set UCX_WARN_UNUSED_ENV_VARS=n to suppress this warning)
[1740658563.161118] [cn1:1550782:0]          parser.c:1906 UCX  WARN  unused env variable: UCX_ROOT (set UCX_WARN_UNUSED_ENV_VARS=n to suppress this warning)
[1740658563.161072] [cn1:1550781:0]          parser.c:1906 UCX  WARN  unused env variable: UCX_ROOT (set UCX_WARN_UNUSED_ENV_VARS=n to suppress this warning)
