 Start File for LAMMPS

 309 atoms

 1 atom types
 
  -0.0 100.0 xlo xhi
  -0.0 100.0 ylo yhi
  -0.0 100.0 zlo zhi
  
 Masses

 1  63.55
 
 Atoms

1 1 50 50 50
2 1 48.1969 48.1969 50
3 1 48.1969 50 48.1969
4 1 48.1969 50 51.8031
5 1 48.1969 51.8031 50
6 1 50 48.1969 48.1969
7 1 50 48.1969 51.8031
8 1 50 51.8031 48.1969
9 1 50 51.8031 51.8031
10 1 51.8031 48.1969 50
11 1 51.8031 50 48.1969
12 1 51.8031 50 51.8031
13 1 51.8031 51.8031 50
14 1 46.3857 50 50
15 1 50 46.3857 50
16 1 50 50 46.3857
17 1 50 50 53.6143
18 1 50 53.6143 50
19 1 53.6143 50 50
20 1 46.3904 48.1971 48.1971
21 1 46.3904 48.1971 51.8029
22 1 46.3904 51.8029 48.1971
23 1 46.3904 51.8029 51.8029
24 1 48.1971 46.3904 48.1971
25 1 48.1971 46.3904 51.8029
26 1 48.1971 48.1971 46.3904
27 1 48.1971 48.1971 53.6096
28 1 48.1971 51.8029 46.3904
29 1 48.1971 51.8029 53.6096
30 1 48.1971 53.6096 48.1971
31 1 48.1971 53.6096 51.8029
32 1 51.8029 46.3904 48.1971
33 1 51.8029 46.3904 51.8029
34 1 51.8029 48.1971 46.3904
35 1 51.8029 48.1971 53.6096
36 1 51.8029 51.8029 46.3904
37 1 51.8029 51.8029 53.6096
38 1 51.8029 53.6096 48.1971
39 1 51.8029 53.6096 51.8029
40 1 53.6096 48.1971 48.1971
41 1 53.6096 48.1971 51.8029
42 1 53.6096 51.8029 48.1971
43 1 53.6096 51.8029 51.8029
44 1 46.3952 46.3952 50
45 1 46.3952 50 46.3952
46 1 46.3952 50 53.6048
47 1 46.3952 53.6048 50
48 1 50 46.3952 46.3952
49 1 50 46.3952 53.6048
50 1 50 53.6048 46.3952
51 1 50 53.6048 53.6048
52 1 53.6048 46.3952 50
53 1 53.6048 50 46.3952
54 1 53.6048 50 53.6048
55 1 53.6048 53.6048 50
56 1 44.5733 48.1968 50
57 1 44.5733 50 48.1968
58 1 44.5733 50 51.8032
59 1 44.5733 51.8032 50
60 1 48.1968 44.5733 50
61 1 48.1968 50 44.5733
62 1 48.1968 50 55.4267
63 1 48.1968 55.4267 50
64 1 50 44.5733 48.1968
65 1 50 44.5733 51.8032
66 1 50 48.1968 44.5733
67 1 50 48.1968 55.4267
68 1 50 51.8032 44.5733
69 1 50 51.8032 55.4267
70 1 50 55.4267 48.1968
71 1 50 55.4267 51.8032
72 1 51.8032 44.5733 50
73 1 51.8032 50 44.5733
74 1 51.8032 50 55.4267
75 1 51.8032 55.4267 50
76 1 55.4267 48.1968 50
77 1 55.4267 50 48.1968
78 1 55.4267 50 51.8032
79 1 55.4267 51.8032 50
80 1 46.3892 46.3892 46.3892
81 1 46.3892 46.3892 53.6108
82 1 46.3892 53.6108 46.3892
83 1 46.3892 53.6108 53.6108
84 1 53.6108 46.3892 46.3892
85 1 53.6108 46.3892 53.6108
86 1 53.6108 53.6108 46.3892
87 1 53.6108 53.6108 53.6108
88 1 44.5851 46.3953 48.1968
89 1 44.5851 46.3953 51.8032
90 1 44.5851 48.1968 46.3953
91 1 44.5851 48.1968 53.6047
92 1 44.5851 51.8032 46.3953
93 1 44.5851 51.8032 53.6047
94 1 44.5851 53.6047 48.1968
95 1 44.5851 53.6047 51.8032
96 1 46.3953 44.5851 48.1968
97 1 46.3953 44.5851 51.8032
98 1 46.3953 48.1968 44.5851
99 1 46.3953 48.1968 55.4149
100 1 46.3953 51.8032 44.5851
101 1 46.3953 51.8032 55.4149
102 1 46.3953 55.4149 48.1968
103 1 46.3953 55.4149 51.8032
104 1 48.1968 44.5851 46.3953
105 1 48.1968 44.5851 53.6047
106 1 48.1968 46.3953 44.5851
107 1 48.1968 46.3953 55.4149
108 1 48.1968 53.6047 44.5851
109 1 48.1968 53.6047 55.4149
110 1 48.1968 55.4149 46.3953
111 1 48.1968 55.4149 53.6047
112 1 51.8032 44.5851 46.3953
113 1 51.8032 44.5851 53.6047
114 1 51.8032 46.3953 44.5851
115 1 51.8032 46.3953 55.4149
116 1 51.8032 53.6047 44.5851
117 1 51.8032 53.6047 55.4149
118 1 51.8032 55.4149 46.3953
119 1 51.8032 55.4149 53.6047
120 1 53.6047 44.5851 48.1968
121 1 53.6047 44.5851 51.8032
122 1 53.6047 48.1968 44.5851
123 1 53.6047 48.1968 55.4149
124 1 53.6047 51.8032 44.5851
125 1 53.6047 51.8032 55.4149
126 1 53.6047 55.4149 48.1968
127 1 53.6047 55.4149 51.8032
128 1 55.4149 46.3953 48.1968
129 1 55.4149 46.3953 51.8032
130 1 55.4149 48.1968 46.3953
131 1 55.4149 48.1968 53.6047
132 1 55.4149 51.8032 46.3953
133 1 55.4149 51.8032 53.6047
134 1 55.4149 53.6047 48.1968
135 1 55.4149 53.6047 51.8032
136 1 44.5973 44.5973 50
137 1 44.5973 50 44.5973
138 1 44.5973 50 55.4027
139 1 44.5973 55.4027 50
140 1 50 44.5973 44.5973
141 1 50 44.5973 55.4027
142 1 50 55.4027 44.5973
143 1 50 55.4027 55.4027
144 1 55.4027 44.5973 50
145 1 55.4027 50 44.5973
146 1 55.4027 50 55.4027
147 1 55.4027 55.4027 50
148 1 42.7671 50 50
149 1 50 42.7671 50
150 1 50 50 42.7671
151 1 50 50 57.2329
152 1 50 57.2329 50
153 1 57.2329 50 50
154 1 42.7718 48.1962 48.1962
155 1 42.7718 48.1962 51.8038
156 1 42.7718 51.8038 48.1962
157 1 42.7718 51.8038 51.8038
158 1 48.1962 42.7718 48.1962
159 1 48.1962 42.7718 51.8038
160 1 48.1962 48.1962 42.7718
161 1 48.1962 48.1962 57.2282
162 1 48.1962 51.8038 42.7718
163 1 48.1962 51.8038 57.2282
164 1 48.1962 57.2282 48.1962
165 1 48.1962 57.2282 51.8038
166 1 51.8038 42.7718 48.1962
167 1 51.8038 42.7718 51.8038
168 1 51.8038 48.1962 42.7718
169 1 51.8038 48.1962 57.2282
170 1 51.8038 51.8038 42.7718
171 1 51.8038 51.8038 57.2282
172 1 51.8038 57.2282 48.1962
173 1 51.8038 57.2282 51.8038
174 1 57.2282 48.1962 48.1962
175 1 57.2282 48.1962 51.8038
176 1 57.2282 51.8038 48.1962
177 1 57.2282 51.8038 51.8038
178 1 42.7764 46.3945 50
179 1 42.7764 50 46.3945
180 1 42.7764 50 53.6055
181 1 42.7764 53.6055 50
182 1 46.3945 42.7764 50
183 1 46.3945 50 42.7764
184 1 46.3945 50 57.2236
185 1 46.3945 57.2236 50
186 1 50 42.7764 46.3945
187 1 50 42.7764 53.6055
188 1 50 46.3945 42.7764
189 1 50 46.3945 57.2236
190 1 50 53.6055 42.7764
191 1 50 53.6055 57.2236
192 1 50 57.2236 46.3945
193 1 50 57.2236 53.6055
194 1 53.6055 42.7764 50
195 1 53.6055 50 42.7764
196 1 53.6055 50 57.2236
197 1 53.6055 57.2236 50
198 1 57.2236 46.3945 50
199 1 57.2236 50 46.3945
200 1 57.2236 50 53.6055
201 1 57.2236 53.6055 50
202 1 44.5802 44.5802 46.3838
203 1 44.5802 44.5802 53.6162
204 1 44.5802 46.3838 44.5802
205 1 44.5802 46.3838 55.4198
206 1 44.5802 53.6162 44.5802
207 1 44.5802 53.6162 55.4198
208 1 44.5802 55.4198 46.3838
209 1 44.5802 55.4198 53.6162
210 1 46.3838 44.5802 44.5802
211 1 46.3838 44.5802 55.4198
212 1 46.3838 55.4198 44.5802
213 1 46.3838 55.4198 55.4198
214 1 53.6162 44.5802 44.5802
215 1 53.6162 44.5802 55.4198
216 1 53.6162 55.4198 44.5802
217 1 53.6162 55.4198 55.4198
218 1 55.4198 44.5802 46.3838
219 1 55.4198 44.5802 53.6162
220 1 55.4198 46.3838 44.5802
221 1 55.4198 46.3838 55.4198
222 1 55.4198 53.6162 44.5802
223 1 55.4198 53.6162 55.4198
224 1 55.4198 55.4198 46.3838
225 1 55.4198 55.4198 53.6162
226 1 42.7916 46.3991 46.3991
227 1 42.7916 46.3991 53.6009
228 1 42.7916 53.6009 46.3991
229 1 42.7916 53.6009 53.6009
230 1 46.3991 42.7916 46.3991
231 1 46.3991 42.7916 53.6009
232 1 46.3991 46.3991 42.7916
233 1 46.3991 46.3991 57.2084
234 1 46.3991 53.6009 42.7916
235 1 46.3991 53.6009 57.2084
236 1 46.3991 57.2084 46.3991
237 1 46.3991 57.2084 53.6009
238 1 53.6009 42.7916 46.3991
239 1 53.6009 42.7916 53.6009
240 1 53.6009 46.3991 42.7916
241 1 53.6009 46.3991 57.2084
242 1 53.6009 53.6009 42.7916
243 1 53.6009 53.6009 57.2084
244 1 53.6009 57.2084 46.3991
245 1 53.6009 57.2084 53.6009
246 1 57.2084 46.3991 46.3991
247 1 57.2084 46.3991 53.6009
248 1 57.2084 53.6009 46.3991
249 1 57.2084 53.6009 53.6009
250 1 42.7968 44.6026 48.2015
251 1 42.7968 44.6026 51.7985
252 1 42.7968 48.2015 44.6026
253 1 42.7968 48.2015 55.3974
254 1 42.7968 51.7985 44.6026
255 1 42.7968 51.7985 55.3974
256 1 42.7968 55.3974 48.2015
257 1 42.7968 55.3974 51.7985
258 1 44.6026 42.7968 48.2015
259 1 44.6026 42.7968 51.7985
260 1 44.6026 48.2015 42.7968
261 1 44.6026 48.2015 57.2032
262 1 44.6026 51.7985 42.7968
263 1 44.6026 51.7985 57.2032
264 1 44.6026 57.2032 48.2015
265 1 44.6026 57.2032 51.7985
266 1 48.2015 42.7968 44.6026
267 1 48.2015 42.7968 55.3974
268 1 48.2015 44.6026 42.7968
269 1 48.2015 44.6026 57.2032
270 1 48.2015 55.3974 42.7968
271 1 48.2015 55.3974 57.2032
272 1 48.2015 57.2032 44.6026
273 1 48.2015 57.2032 55.3974
274 1 51.7985 42.7968 44.6026
275 1 51.7985 42.7968 55.3974
276 1 51.7985 44.6026 42.7968
277 1 51.7985 44.6026 57.2032
278 1 51.7985 55.3974 42.7968
279 1 51.7985 55.3974 57.2032
280 1 51.7985 57.2032 44.6026
281 1 51.7985 57.2032 55.3974
282 1 55.3974 42.7968 48.2015
283 1 55.3974 42.7968 51.7985
284 1 55.3974 48.2015 42.7968
285 1 55.3974 48.2015 57.2032
286 1 55.3974 51.7985 42.7968
287 1 55.3974 51.7985 57.2032
288 1 55.3974 57.2032 48.2015
289 1 55.3974 57.2032 51.7985
290 1 57.2032 44.6026 48.2015
291 1 57.2032 44.6026 51.7985
292 1 57.2032 48.2015 44.6026
293 1 57.2032 48.2015 55.3974
294 1 57.2032 51.7985 44.6026
295 1 57.2032 51.7985 55.3974
296 1 57.2032 55.3974 48.2015
297 1 57.2032 55.3974 51.7985
298 1 42.8271 42.8271 50
299 1 42.8271 50 42.8271
300 1 42.8271 50 57.1729
301 1 42.8271 57.1729 50
302 1 50 42.8271 42.8271
303 1 50 42.8271 57.1729
304 1 50 57.1729 42.8271
305 1 50 57.1729 57.1729
306 1 57.1729 42.8271 50
307 1 57.1729 50 42.8271
308 1 57.1729 50 57.1729
309 1 57.1729 57.1729 50