 Start File for LAMMPS

 923 atoms

 1 atom types
 
  -0.0 200.0 xlo xhi
  -0.0 200.0 ylo yhi
  -0.0 200.0 zlo zhi
  
 Masses

 1  63.55
 
 Atoms

1 1 100 100 100
2 1 98.1945 98.1945 100
3 1 98.1945 100 98.1945
4 1 98.1945 100 101.805
5 1 98.1945 101.805 100
6 1 100 98.1945 98.1945
7 1 100 98.1945 101.805
8 1 100 101.805 98.1945
9 1 100 101.805 101.805
10 1 101.805 98.1945 100
11 1 101.805 100 98.1945
12 1 101.805 100 101.805
13 1 101.805 101.805 100
14 1 96.3863 100 100
15 1 100 96.3863 100
16 1 100 100 96.3863
17 1 100 100 103.614
18 1 100 103.614 100
19 1 103.614 100 100
20 1 96.3877 98.1948 98.1948
21 1 96.3877 98.1948 101.805
22 1 96.3877 101.805 98.1948
23 1 96.3877 101.805 101.805
24 1 98.1948 96.3877 98.1948
25 1 98.1948 96.3877 101.805
26 1 98.1948 98.1948 96.3877
27 1 98.1948 98.1948 103.612
28 1 98.1948 101.805 96.3877
29 1 98.1948 101.805 103.612
30 1 98.1948 103.612 98.1948
31 1 98.1948 103.612 101.805
32 1 101.805 96.3877 98.1948
33 1 101.805 96.3877 101.805
34 1 101.805 98.1948 96.3877
35 1 101.805 98.1948 103.612
36 1 101.805 101.805 96.3877
37 1 101.805 101.805 103.612
38 1 101.805 103.612 98.1948
39 1 101.805 103.612 101.805
40 1 103.612 98.1948 98.1948
41 1 103.612 98.1948 101.805
42 1 103.612 101.805 98.1948
43 1 103.612 101.805 101.805
44 1 96.3893 96.3893 100
45 1 96.3893 100 96.3893
46 1 96.3893 100 103.611
47 1 96.3893 103.611 100
48 1 100 96.3893 96.3893
49 1 100 96.3893 103.611
50 1 100 103.611 96.3893
51 1 100 103.611 103.611
52 1 103.611 96.3893 100
53 1 103.611 100 96.3893
54 1 103.611 100 103.611
55 1 103.611 103.611 100
56 1 94.577 98.1952 100
57 1 94.577 100 98.1952
58 1 94.577 100 101.805
59 1 94.577 101.805 100
60 1 98.1952 94.577 100
61 1 98.1952 100 94.577
62 1 98.1952 100 105.423
63 1 98.1952 105.423 100
64 1 100 94.577 98.1952
65 1 100 94.577 101.805
66 1 100 98.1952 94.577
67 1 100 98.1952 105.423
68 1 100 101.805 94.577
69 1 100 101.805 105.423
70 1 100 105.423 98.1952
71 1 100 105.423 101.805
72 1 101.805 94.577 100
73 1 101.805 100 94.577
74 1 101.805 100 105.423
75 1 101.805 105.423 100
76 1 105.423 98.1952 100
77 1 105.423 100 98.1952
78 1 105.423 100 101.805
79 1 105.423 101.805 100
80 1 96.3882 96.3882 96.3882
81 1 96.3882 96.3882 103.612
82 1 96.3882 103.612 96.3882
83 1 96.3882 103.612 103.612
84 1 103.612 96.3882 96.3882
85 1 103.612 96.3882 103.612
86 1 103.612 103.612 96.3882
87 1 103.612 103.612 103.612
88 1 94.5811 96.3902 98.1948
89 1 94.5811 96.3902 101.805
90 1 94.5811 98.1948 96.3902
91 1 94.5811 98.1948 103.61
92 1 94.5811 101.805 96.3902
93 1 94.5811 101.805 103.61
94 1 94.5811 103.61 98.1948
95 1 94.5811 103.61 101.805
96 1 96.3902 94.5811 98.1948
97 1 96.3902 94.5811 101.805
98 1 96.3902 98.1948 94.5811
99 1 96.3902 98.1948 105.419
100 1 96.3902 101.805 94.5811
101 1 96.3902 101.805 105.419
102 1 96.3902 105.419 98.1948
103 1 96.3902 105.419 101.805
104 1 98.1948 94.5811 96.3902
105 1 98.1948 94.5811 103.61
106 1 98.1948 96.3902 94.5811
107 1 98.1948 96.3902 105.419
108 1 98.1948 103.61 94.5811
109 1 98.1948 103.61 105.419
110 1 98.1948 105.419 96.3902
111 1 98.1948 105.419 103.61
112 1 101.805 94.5811 96.3902
113 1 101.805 94.5811 103.61
114 1 101.805 96.3902 94.5811
115 1 101.805 96.3902 105.419
116 1 101.805 103.61 94.5811
117 1 101.805 103.61 105.419
118 1 101.805 105.419 96.3902
119 1 101.805 105.419 103.61
120 1 103.61 94.5811 98.1948
121 1 103.61 94.5811 101.805
122 1 103.61 98.1948 94.5811
123 1 103.61 98.1948 105.419
124 1 103.61 101.805 94.5811
125 1 103.61 101.805 105.419
126 1 103.61 105.419 98.1948
127 1 103.61 105.419 101.805
128 1 105.419 96.3902 98.1948
129 1 105.419 96.3902 101.805
130 1 105.419 98.1948 96.3902
131 1 105.419 98.1948 103.61
132 1 105.419 101.805 96.3902
133 1 105.419 101.805 103.61
134 1 105.419 103.61 98.1948
135 1 105.419 103.61 101.805
136 1 92.7628 100 100
137 1 100 92.7628 100
138 1 100 100 92.7628
139 1 100 100 107.237
140 1 100 107.237 100
141 1 107.237 100 100
142 1 92.7656 98.1951 98.1951
143 1 92.7656 98.1951 101.805
144 1 92.7656 101.805 98.1951
145 1 92.7656 101.805 101.805
146 1 94.5857 94.5857 100
147 1 94.5857 100 94.5857
148 1 94.5857 100 105.414
149 1 94.5857 105.414 100
150 1 98.1951 92.7656 98.1951
151 1 98.1951 92.7656 101.805
152 1 98.1951 98.1951 92.7656
153 1 98.1951 98.1951 107.234
154 1 98.1951 101.805 92.7656
155 1 98.1951 101.805 107.234
156 1 98.1951 107.234 98.1951
157 1 98.1951 107.234 101.805
158 1 100 94.5857 94.5857
159 1 100 94.5857 105.414
160 1 100 105.414 94.5857
161 1 100 105.414 105.414
162 1 101.805 92.7656 98.1951
163 1 101.805 92.7656 101.805
164 1 101.805 98.1951 92.7656
165 1 101.805 98.1951 107.234
166 1 101.805 101.805 92.7656
167 1 101.805 101.805 107.234
168 1 101.805 107.234 98.1951
169 1 101.805 107.234 101.805
170 1 105.414 94.5857 100
171 1 105.414 100 94.5857
172 1 105.414 100 105.414
173 1 105.414 105.414 100
174 1 107.234 98.1951 98.1951
175 1 107.234 98.1951 101.805
176 1 107.234 101.805 98.1951
177 1 107.234 101.805 101.805
178 1 92.7684 96.391 100
179 1 92.7684 100 96.391
180 1 92.7684 100 103.609
181 1 92.7684 103.609 100
182 1 96.391 92.7684 100
183 1 96.391 100 92.7684
184 1 96.391 100 107.232
185 1 96.391 107.232 100
186 1 100 92.7684 96.391
187 1 100 92.7684 103.609
188 1 100 96.391 92.7684
189 1 100 96.391 107.232
190 1 100 103.609 92.7684
191 1 100 103.609 107.232
192 1 100 107.232 96.391
193 1 100 107.232 103.609
194 1 103.609 92.7684 100
195 1 103.609 100 92.7684
196 1 103.609 100 107.232
197 1 103.609 107.232 100
198 1 107.232 96.391 100
199 1 107.232 100 96.391
200 1 107.232 100 103.609
201 1 107.232 103.609 100
202 1 94.5814 94.5814 96.3874
203 1 94.5814 94.5814 103.613
204 1 94.5814 96.3874 94.5814
205 1 94.5814 96.3874 105.419
206 1 94.5814 103.613 94.5814
207 1 94.5814 103.613 105.419
208 1 94.5814 105.419 96.3874
209 1 94.5814 105.419 103.613
210 1 96.3874 94.5814 94.5814
211 1 96.3874 94.5814 105.419
212 1 96.3874 105.419 94.5814
213 1 96.3874 105.419 105.419
214 1 103.613 94.5814 94.5814
215 1 103.613 94.5814 105.419
216 1 103.613 105.419 94.5814
217 1 103.613 105.419 105.419
218 1 105.419 94.5814 96.3874
219 1 105.419 94.5814 103.613
220 1 105.419 96.3874 94.5814
221 1 105.419 96.3874 105.419
222 1 105.419 103.613 94.5814
223 1 105.419 103.613 105.419
224 1 105.419 105.419 96.3874
225 1 105.419 105.419 103.613
226 1 92.7734 96.3901 96.3901
227 1 92.7734 96.3901 103.61
228 1 92.7734 103.61 96.3901
229 1 92.7734 103.61 103.61
230 1 96.3901 92.7734 96.3901
231 1 96.3901 92.7734 103.61
232 1 96.3901 96.3901 92.7734
233 1 96.3901 96.3901 107.227
234 1 96.3901 103.61 92.7734
235 1 96.3901 103.61 107.227
236 1 96.3901 107.227 96.3901
237 1 96.3901 107.227 103.61
238 1 103.61 92.7734 96.3901
239 1 103.61 92.7734 103.61
240 1 103.61 96.3901 92.7734
241 1 103.61 96.3901 107.227
242 1 103.61 103.61 92.7734
243 1 103.61 103.61 107.227
244 1 103.61 107.227 96.3901
245 1 103.61 107.227 103.61
246 1 107.227 96.3901 96.3901
247 1 107.227 96.3901 103.61
248 1 107.227 103.61 96.3901
249 1 107.227 103.61 103.61
250 1 90.9487 98.1948 100
251 1 90.9487 100 98.1948
252 1 90.9487 100 101.805
253 1 90.9487 101.805 100
254 1 92.7765 94.5869 98.1948
255 1 92.7765 94.5869 101.805
256 1 92.7765 98.1948 94.5869
257 1 92.7765 98.1948 105.413
258 1 92.7765 101.805 94.5869
259 1 92.7765 101.805 105.413
260 1 92.7765 105.413 98.1948
261 1 92.7765 105.413 101.805
262 1 94.5869 92.7765 98.1948
263 1 94.5869 92.7765 101.805
264 1 94.5869 98.1948 92.7765
265 1 94.5869 98.1948 107.223
266 1 94.5869 101.805 92.7765
267 1 94.5869 101.805 107.223
268 1 94.5869 107.223 98.1948
269 1 94.5869 107.223 101.805
270 1 98.1948 90.9487 100
271 1 98.1948 92.7765 94.5869
272 1 98.1948 92.7765 105.413
273 1 98.1948 94.5869 92.7765
274 1 98.1948 94.5869 107.223
275 1 98.1948 100 90.9487
276 1 98.1948 100 109.051
277 1 98.1948 105.413 92.7765
278 1 98.1948 105.413 107.223
279 1 98.1948 107.223 94.5869
280 1 98.1948 107.223 105.413
281 1 98.1948 109.051 100
282 1 100 90.9487 98.1948
283 1 100 90.9487 101.805
284 1 100 98.1948 90.9487
285 1 100 98.1948 109.051
286 1 100 101.805 90.9487
287 1 100 101.805 109.051
288 1 100 109.051 98.1948
289 1 100 109.051 101.805
290 1 101.805 90.9487 100
291 1 101.805 92.7765 94.5869
292 1 101.805 92.7765 105.413
293 1 101.805 94.5869 92.7765
294 1 101.805 94.5869 107.223
295 1 101.805 100 90.9487
296 1 101.805 100 109.051
297 1 101.805 105.413 92.7765
298 1 101.805 105.413 107.223
299 1 101.805 107.223 94.5869
300 1 101.805 107.223 105.413
301 1 101.805 109.051 100
302 1 105.413 92.7765 98.1948
303 1 105.413 92.7765 101.805
304 1 105.413 98.1948 92.7765
305 1 105.413 98.1948 107.223
306 1 105.413 101.805 92.7765
307 1 105.413 101.805 107.223
308 1 105.413 107.223 98.1948
309 1 105.413 107.223 101.805
310 1 107.223 94.5869 98.1948
311 1 107.223 94.5869 101.805
312 1 107.223 98.1948 94.5869
313 1 107.223 98.1948 105.413
314 1 107.223 101.805 94.5869
315 1 107.223 101.805 105.413
316 1 107.223 105.413 98.1948
317 1 107.223 105.413 101.805
318 1 109.051 98.1948 100
319 1 109.051 100 98.1948
320 1 109.051 100 101.805
321 1 109.051 101.805 100
322 1 90.9545 96.3902 98.1946
323 1 90.9545 96.3902 101.805
324 1 90.9545 98.1946 96.3902
325 1 90.9545 98.1946 103.61
326 1 90.9545 101.805 96.3902
327 1 90.9545 101.805 103.61
328 1 90.9545 103.61 98.1946
329 1 90.9545 103.61 101.805
330 1 96.3902 90.9545 98.1946
331 1 96.3902 90.9545 101.805
332 1 96.3902 98.1946 90.9545
333 1 96.3902 98.1946 109.045
334 1 96.3902 101.805 90.9545
335 1 96.3902 101.805 109.045
336 1 96.3902 109.045 98.1946
337 1 96.3902 109.045 101.805
338 1 98.1946 90.9545 96.3902
339 1 98.1946 90.9545 103.61
340 1 98.1946 96.3902 90.9545
341 1 98.1946 96.3902 109.045
342 1 98.1946 103.61 90.9545
343 1 98.1946 103.61 109.045
344 1 98.1946 109.045 96.3902
345 1 98.1946 109.045 103.61
346 1 101.805 90.9545 96.3902
347 1 101.805 90.9545 103.61
348 1 101.805 96.3902 90.9545
349 1 101.805 96.3902 109.045
350 1 101.805 103.61 90.9545
351 1 101.805 103.61 109.045
352 1 101.805 109.045 96.3902
353 1 101.805 109.045 103.61
354 1 103.61 90.9545 98.1946
355 1 103.61 90.9545 101.805
356 1 103.61 98.1946 90.9545
357 1 103.61 98.1946 109.045
358 1 103.61 101.805 90.9545
359 1 103.61 101.805 109.045
360 1 103.61 109.045 98.1946
361 1 103.61 109.045 101.805
362 1 109.045 96.3902 98.1946
363 1 109.045 96.3902 101.805
364 1 109.045 98.1946 96.3902
365 1 109.045 98.1946 103.61
366 1 109.045 101.805 96.3902
367 1 109.045 101.805 103.61
368 1 109.045 103.61 98.1946
369 1 109.045 103.61 101.805
370 1 92.7853 92.7853 100
371 1 92.7853 100 92.7853
372 1 92.7853 100 107.215
373 1 92.7853 107.215 100
374 1 100 92.7853 92.7853
375 1 100 92.7853 107.215
376 1 100 107.215 92.7853
377 1 100 107.215 107.215
378 1 107.215 92.7853 100
379 1 107.215 100 92.7853
380 1 107.215 100 107.215
381 1 107.215 107.215 100
382 1 90.9603 94.587 100
383 1 90.9603 100 94.587
384 1 90.9603 100 105.413
385 1 90.9603 105.413 100
386 1 92.7722 94.5793 94.5793
387 1 92.7722 94.5793 105.421
388 1 92.7722 105.421 94.5793
389 1 92.7722 105.421 105.421
390 1 94.587 90.9603 100
391 1 94.5793 92.7722 94.5793
392 1 94.5793 92.7722 105.421
393 1 94.5793 94.5793 92.7722
394 1 94.5793 94.5793 107.228
395 1 94.587 100 90.9603
396 1 94.587 100 109.04
397 1 94.5793 105.421 92.7722
398 1 94.5793 105.421 107.228
399 1 94.5793 107.228 94.5793
400 1 94.5793 107.228 105.421
401 1 94.587 109.04 100
402 1 100 90.9603 94.587
403 1 100 90.9603 105.413
404 1 100 94.587 90.9603
405 1 100 94.587 109.04
406 1 100 105.413 90.9603
407 1 100 105.413 109.04
408 1 100 109.04 94.587
409 1 100 109.04 105.413
410 1 105.413 90.9603 100
411 1 105.421 92.7722 94.5793
412 1 105.421 92.7722 105.421
413 1 105.421 94.5793 92.7722
414 1 105.421 94.5793 107.228
415 1 105.413 100 90.9603
416 1 105.413 100 109.04
417 1 105.421 105.421 92.7722
418 1 105.421 105.421 107.228
419 1 105.421 107.228 94.5793
420 1 105.421 107.228 105.421
421 1 105.413 109.04 100
422 1 107.228 94.5793 94.5793
423 1 107.228 94.5793 105.421
424 1 107.228 105.421 94.5793
425 1 107.228 105.421 105.421
426 1 109.04 94.587 100
427 1 109.04 100 94.587
428 1 109.04 100 105.413
429 1 109.04 105.413 100
430 1 92.7755 92.7755 96.3861
431 1 92.7755 92.7755 103.614
432 1 92.7755 96.3861 92.7755
433 1 92.7755 96.3861 107.224
434 1 92.7755 103.614 92.7755
435 1 92.7755 103.614 107.224
436 1 92.7755 107.224 96.3861
437 1 92.7755 107.224 103.614
438 1 96.3861 92.7755 92.7755
439 1 96.3861 92.7755 107.224
440 1 96.3861 107.224 92.7755
441 1 96.3861 107.224 107.224
442 1 103.614 92.7755 92.7755
443 1 103.614 92.7755 107.224
444 1 103.614 107.224 92.7755
445 1 103.614 107.224 107.224
446 1 107.224 92.7755 96.3861
447 1 107.224 92.7755 103.614
448 1 107.224 96.3861 92.7755
449 1 107.224 96.3861 107.224
450 1 107.224 103.614 92.7755
451 1 107.224 103.614 107.224
452 1 107.224 107.224 96.3861
453 1 107.224 107.224 103.614
454 1 90.9681 94.5865 96.3901
455 1 90.9681 94.5865 103.61
456 1 90.9681 96.3901 94.5865
457 1 90.9681 96.3901 105.413
458 1 90.9681 103.61 94.5865
459 1 90.9681 103.61 105.413
460 1 90.9681 105.413 96.3901
461 1 90.9681 105.413 103.61
462 1 94.5865 90.9681 96.3901
463 1 94.5865 90.9681 103.61
464 1 94.5865 96.3901 90.9681
465 1 94.5865 96.3901 109.032
466 1 94.5865 103.61 90.9681
467 1 94.5865 103.61 109.032
468 1 94.5865 109.032 96.3901
469 1 94.5865 109.032 103.61
470 1 96.3901 90.9681 94.5865
471 1 96.3901 90.9681 105.413
472 1 96.3901 94.5865 90.9681
473 1 96.3901 94.5865 109.032
474 1 96.3901 105.413 90.9681
475 1 96.3901 105.413 109.032
476 1 96.3901 109.032 94.5865
477 1 96.3901 109.032 105.413
478 1 103.61 90.9681 94.5865
479 1 103.61 90.9681 105.413
480 1 103.61 94.5865 90.9681
481 1 103.61 94.5865 109.032
482 1 103.61 105.413 90.9681
483 1 103.61 105.413 109.032
484 1 103.61 109.032 94.5865
485 1 103.61 109.032 105.413
486 1 105.413 90.9681 96.3901
487 1 105.413 90.9681 103.61
488 1 105.413 96.3901 90.9681
489 1 105.413 96.3901 109.032
490 1 105.413 103.61 90.9681
491 1 105.413 103.61 109.032
492 1 105.413 109.032 96.3901
493 1 105.413 109.032 103.61
494 1 109.032 94.5865 96.3901
495 1 109.032 94.5865 103.61
496 1 109.032 96.3901 94.5865
497 1 109.032 96.3901 105.413
498 1 109.032 103.61 94.5865
499 1 109.032 103.61 105.413
500 1 109.032 105.413 96.3901
501 1 109.032 105.413 103.61
502 1 90.9741 92.7859 98.1951
503 1 90.9741 92.7859 101.805
504 1 90.9741 107.214 98.1951
505 1 90.9741 107.214 101.805
506 1 92.7859 90.9741 98.1951
507 1 92.7859 90.9741 101.805
508 1 92.7859 109.026 98.1951
509 1 92.7859 109.026 101.805
510 1 107.214 90.9741 98.1951
511 1 107.214 90.9741 101.805
512 1 107.214 109.026 98.1951
513 1 107.214 109.026 101.805
514 1 109.026 92.7859 98.1951
515 1 109.026 92.7859 101.805
516 1 109.026 107.214 98.1951
517 1 109.026 107.214 101.805
518 1 90.9741 98.1951 92.7859
519 1 90.9741 98.1951 107.214
520 1 90.9741 101.805 92.7859
521 1 90.9741 101.805 107.214
522 1 92.7859 98.1951 90.9741
523 1 92.7859 98.1951 109.026
524 1 92.7859 101.805 90.9741
525 1 92.7859 101.805 109.026
526 1 98.1951 90.9741 92.7859
527 1 98.1951 90.9741 107.214
528 1 98.1951 92.7859 90.9741
529 1 98.1951 92.7859 109.026
530 1 98.1951 107.214 90.9741
531 1 98.1951 107.214 109.026
532 1 98.1951 109.026 92.7859
533 1 98.1951 109.026 107.214
534 1 101.805 90.9741 92.7859
535 1 101.805 90.9741 107.214
536 1 101.805 92.7859 90.9741
537 1 101.805 92.7859 109.026
538 1 101.805 107.214 90.9741
539 1 101.805 107.214 109.026
540 1 101.805 109.026 92.7859
541 1 101.805 109.026 107.214
542 1 107.214 98.1951 90.9741
543 1 107.214 98.1951 109.026
544 1 107.214 101.805 90.9741
545 1 107.214 101.805 109.026
546 1 109.026 98.1951 92.7859
547 1 109.026 98.1951 107.214
548 1 109.026 101.805 92.7859
549 1 109.026 101.805 107.214
550 1 90.9885 90.9885 100
551 1 90.9885 100 90.9885
552 1 90.9885 100 109.011
553 1 90.9885 109.011 100
554 1 100 90.9885 90.9885
555 1 100 90.9885 109.011
556 1 100 109.011 90.9885
557 1 100 109.011 109.011
558 1 109.011 90.9885 100
559 1 109.011 100 90.9885
560 1 109.011 100 109.011
561 1 109.011 109.011 100
562 1 89.1459 100 100
563 1 100 89.1459 100
564 1 100 100 89.1459
565 1 100 100 110.854
566 1 100 110.854 100
567 1 110.854 100 100
568 1 89.1483 98.1941 98.1941
569 1 89.1483 98.1941 101.806
570 1 89.1483 101.806 98.1941
571 1 89.1483 101.806 101.806
572 1 98.1941 89.1483 98.1941
573 1 98.1941 89.1483 101.806
574 1 98.1941 110.852 98.1941
575 1 98.1941 110.852 101.806
576 1 101.806 89.1483 98.1941
577 1 101.806 89.1483 101.806
578 1 101.806 110.852 98.1941
579 1 101.806 110.852 101.806
580 1 110.852 98.1941 98.1941
581 1 110.852 98.1941 101.806
582 1 110.852 101.806 98.1941
583 1 110.852 101.806 101.806
584 1 98.1941 98.1941 89.1483
585 1 98.1941 98.1941 110.852
586 1 98.1941 101.806 89.1483
587 1 98.1941 101.806 110.852
588 1 101.806 98.1941 89.1483
589 1 101.806 98.1941 110.852
590 1 101.806 101.806 89.1483
591 1 101.806 101.806 110.852
592 1 89.1507 96.3889 100
593 1 89.1507 100 96.3889
594 1 89.1507 100 103.611
595 1 89.1507 103.611 100
596 1 96.3889 89.1507 100
597 1 96.3889 100 89.1507
598 1 96.3889 100 110.849
599 1 96.3889 110.849 100
600 1 100 89.1507 96.3889
601 1 100 89.1507 103.611
602 1 100 96.3889 89.1507
603 1 100 96.3889 110.849
604 1 100 103.611 89.1507
605 1 100 103.611 110.849
606 1 100 110.849 96.3889
607 1 100 110.849 103.611
608 1 103.611 89.1507 100
609 1 103.611 100 89.1507
610 1 103.611 100 110.849
611 1 103.611 110.849 100
612 1 110.849 96.3889 100
613 1 110.849 100 96.3889
614 1 110.849 100 103.611
615 1 110.849 103.611 100
616 1 89.1566 96.3891 96.3891
617 1 89.1566 96.3891 103.611
618 1 89.1566 103.611 96.3891
619 1 89.1566 103.611 103.611
620 1 96.3891 89.1566 96.3891
621 1 96.3891 89.1566 103.611
622 1 96.3891 96.3891 89.1566
623 1 96.3891 96.3891 110.843
624 1 96.3891 103.611 89.1566
625 1 96.3891 103.611 110.843
626 1 96.3891 110.843 96.3891
627 1 96.3891 110.843 103.611
628 1 103.611 89.1566 96.3891
629 1 103.611 89.1566 103.611
630 1 103.611 96.3891 89.1566
631 1 103.611 96.3891 110.843
632 1 103.611 103.611 89.1566
633 1 103.611 103.611 110.843
634 1 103.611 110.843 96.3891
635 1 103.611 110.843 103.611
636 1 110.843 96.3891 96.3891
637 1 110.843 96.3891 103.611
638 1 110.843 103.611 96.3891
639 1 110.843 103.611 103.611
640 1 89.1587 94.5855 98.1942
641 1 89.1587 94.5855 101.806
642 1 89.1587 98.1942 94.5855
643 1 89.1587 98.1942 105.414
644 1 89.1587 101.806 94.5855
645 1 89.1587 101.806 105.414
646 1 89.1587 105.414 98.1942
647 1 89.1587 105.414 101.806
648 1 94.5855 89.1587 98.1942
649 1 94.5855 89.1587 101.806
650 1 94.5855 98.1942 89.1587
651 1 94.5855 98.1942 110.841
652 1 94.5855 101.806 89.1587
653 1 94.5855 101.806 110.841
654 1 94.5855 110.841 98.1942
655 1 94.5855 110.841 101.806
656 1 98.1942 89.1587 94.5855
657 1 98.1942 89.1587 105.414
658 1 98.1942 94.5855 89.1587
659 1 98.1942 94.5855 110.841
660 1 98.1942 105.414 89.1587
661 1 98.1942 105.414 110.841
662 1 98.1942 110.841 94.5855
663 1 98.1942 110.841 105.414
664 1 101.806 89.1587 94.5855
665 1 101.806 89.1587 105.414
666 1 101.806 94.5855 89.1587
667 1 101.806 94.5855 110.841
668 1 101.806 105.414 89.1587
669 1 101.806 105.414 110.841
670 1 101.806 110.841 94.5855
671 1 101.806 110.841 105.414
672 1 105.414 89.1587 98.1942
673 1 105.414 89.1587 101.806
674 1 105.414 98.1942 89.1587
675 1 105.414 98.1942 110.841
676 1 105.414 101.806 89.1587
677 1 105.414 101.806 110.841
678 1 105.414 110.841 98.1942
679 1 105.414 110.841 101.806
680 1 110.841 94.5855 98.1942
681 1 110.841 94.5855 101.806
682 1 110.841 98.1942 94.5855
683 1 110.841 98.1942 105.414
684 1 110.841 101.806 94.5855
685 1 110.841 101.806 105.414
686 1 110.841 105.414 98.1942
687 1 110.841 105.414 101.806
688 1 92.7656 92.7656 92.7656
689 1 92.7656 92.7656 107.234
690 1 92.7656 107.234 92.7656
691 1 92.7656 107.234 107.234
692 1 107.234 92.7656 92.7656
693 1 107.234 92.7656 107.234
694 1 107.234 107.234 92.7656
695 1 107.234 107.234 107.234
696 1 90.9638 92.7694 94.5735
697 1 90.9638 92.7694 105.426
698 1 90.9638 107.231 94.5735
699 1 90.9638 107.231 105.426
700 1 92.7694 90.9638 94.5735
701 1 92.7694 90.9638 105.426
702 1 92.7694 109.036 94.5735
703 1 92.7694 109.036 105.426
704 1 107.231 90.9638 94.5735
705 1 107.231 90.9638 105.426
706 1 107.231 109.036 94.5735
707 1 107.231 109.036 105.426
708 1 109.036 92.7694 94.5735
709 1 109.036 92.7694 105.426
710 1 109.036 107.231 94.5735
711 1 109.036 107.231 105.426
712 1 90.9638 94.5735 92.7694
713 1 90.9638 94.5735 107.231
714 1 90.9638 105.426 92.7694
715 1 90.9638 105.426 107.231
716 1 92.7694 94.5735 90.9638
717 1 92.7694 94.5735 109.036
718 1 92.7694 105.426 90.9638
719 1 92.7694 105.426 109.036
720 1 94.5735 90.9638 92.7694
721 1 94.5735 90.9638 107.231
722 1 94.5735 92.7694 90.9638
723 1 94.5735 92.7694 109.036
724 1 94.5735 107.231 90.9638
725 1 94.5735 107.231 109.036
726 1 94.5735 109.036 92.7694
727 1 94.5735 109.036 107.231
728 1 105.426 90.9638 92.7694
729 1 105.426 90.9638 107.231
730 1 105.426 92.7694 90.9638
731 1 105.426 92.7694 109.036
732 1 105.426 107.231 90.9638
733 1 105.426 107.231 109.036
734 1 105.426 109.036 92.7694
735 1 105.426 109.036 107.231
736 1 107.231 94.5735 90.9638
737 1 107.231 94.5735 109.036
738 1 107.231 105.426 90.9638
739 1 107.231 105.426 109.036
740 1 109.036 94.5735 92.7694
741 1 109.036 94.5735 107.231
742 1 109.036 105.426 92.7694
743 1 109.036 105.426 107.231
744 1 89.1663 92.7847 100
745 1 89.1663 100 92.7847
746 1 89.1663 100 107.215
747 1 89.1663 107.215 100
748 1 92.7847 89.1663 100
749 1 92.7847 100 89.1663
750 1 92.7847 100 110.834
751 1 92.7847 110.834 100
752 1 100 89.1663 92.7847
753 1 100 89.1663 107.215
754 1 100 92.7847 89.1663
755 1 100 92.7847 110.834
756 1 100 107.215 89.1663
757 1 100 107.215 110.834
758 1 100 110.834 92.7847
759 1 100 110.834 107.215
760 1 107.215 89.1663 100
761 1 107.215 100 89.1663
762 1 107.215 100 110.834
763 1 107.215 110.834 100
764 1 110.834 92.7847 100
765 1 110.834 100 92.7847
766 1 110.834 100 107.215
767 1 110.834 107.215 100
768 1 89.1795 94.591 94.591
769 1 89.1795 94.591 105.409
770 1 89.1795 105.409 94.591
771 1 89.1795 105.409 105.409
772 1 90.9696 90.9696 96.3811
773 1 90.9696 90.9696 103.619
774 1 90.9696 96.3811 90.9696
775 1 90.9696 96.3811 109.03
776 1 90.9696 103.619 90.9696
777 1 90.9696 103.619 109.03
778 1 90.9696 109.03 96.3811
779 1 90.9696 109.03 103.619
780 1 94.591 89.1795 94.591
781 1 94.591 89.1795 105.409
782 1 94.591 94.591 89.1795
783 1 94.591 94.591 110.82
784 1 94.591 105.409 89.1795
785 1 94.591 105.409 110.82
786 1 94.591 110.82 94.591
787 1 94.591 110.82 105.409
788 1 96.3811 90.9696 90.9696
789 1 96.3811 90.9696 109.03
790 1 96.3811 109.03 90.9696
791 1 96.3811 109.03 109.03
792 1 103.619 90.9696 90.9696
793 1 103.619 90.9696 109.03
794 1 103.619 109.03 90.9696
795 1 103.619 109.03 109.03
796 1 105.409 89.1795 94.591
797 1 105.409 89.1795 105.409
798 1 105.409 94.591 89.1795
799 1 105.409 94.591 110.82
800 1 105.409 105.409 89.1795
801 1 105.409 105.409 110.82
802 1 105.409 110.82 94.591
803 1 105.409 110.82 105.409
804 1 109.03 90.9696 96.3811
805 1 109.03 90.9696 103.619
806 1 109.03 96.3811 90.9696
807 1 109.03 96.3811 109.03
808 1 109.03 103.619 90.9696
809 1 109.03 103.619 109.03
810 1 109.03 109.03 96.3811
811 1 109.03 109.03 103.619
812 1 110.82 94.591 94.591
813 1 110.82 94.591 105.409
814 1 110.82 105.409 94.591
815 1 110.82 105.409 105.409
816 1 89.1808 92.7897 96.3944
817 1 89.1808 92.7897 103.606
818 1 89.1808 96.3944 92.7897
819 1 89.1808 96.3944 107.21
820 1 89.1808 103.606 92.7897
821 1 89.1808 103.606 107.21
822 1 89.1808 107.21 96.3944
823 1 89.1808 107.21 103.606
824 1 92.7897 89.1808 96.3944
825 1 92.7897 89.1808 103.606
826 1 92.7897 96.3944 89.1808
827 1 92.7897 96.3944 110.819
828 1 92.7897 103.606 89.1808
829 1 92.7897 103.606 110.819
830 1 92.7897 110.819 96.3944
831 1 92.7897 110.819 103.606
832 1 96.3944 89.1808 92.7897
833 1 96.3944 89.1808 107.21
834 1 96.3944 92.7897 89.1808
835 1 96.3944 92.7897 110.819
836 1 96.3944 107.21 89.1808
837 1 96.3944 107.21 110.819
838 1 96.3944 110.819 92.7897
839 1 96.3944 110.819 107.21
840 1 103.606 89.1808 92.7897
841 1 103.606 89.1808 107.21
842 1 103.606 92.7897 89.1808
843 1 103.606 92.7897 110.819
844 1 103.606 107.21 89.1808
845 1 103.606 107.21 110.819
846 1 103.606 110.819 92.7897
847 1 103.606 110.819 107.21
848 1 107.21 89.1808 96.3944
849 1 107.21 89.1808 103.606
850 1 107.21 96.3944 89.1808
851 1 107.21 96.3944 110.819
852 1 107.21 103.606 89.1808
853 1 107.21 103.606 110.819
854 1 107.21 110.819 96.3944
855 1 107.21 110.819 103.606
856 1 110.819 92.7897 96.3944
857 1 110.819 92.7897 103.606
858 1 110.819 96.3944 92.7897
859 1 110.819 96.3944 107.21
860 1 110.819 103.606 92.7897
861 1 110.819 103.606 107.21
862 1 110.819 107.21 96.3944
863 1 110.819 107.21 103.606
864 1 89.1879 98.1999 90.9939
865 1 89.1879 98.1999 109.006
866 1 89.1879 101.8 90.9939
867 1 89.1879 101.8 109.006
868 1 98.1999 89.1879 90.9939
869 1 98.1999 89.1879 109.006
870 1 98.1999 110.812 90.9939
871 1 98.1999 110.812 109.006
872 1 101.8 89.1879 90.9939
873 1 101.8 89.1879 109.006
874 1 101.8 110.812 90.9939
875 1 101.8 110.812 109.006
876 1 110.812 98.1999 90.9939
877 1 110.812 98.1999 109.006
878 1 110.812 101.8 90.9939
879 1 110.812 101.8 109.006
880 1 89.1879 90.9939 98.1999
881 1 89.1879 90.9939 101.8
882 1 89.1879 109.006 98.1999
883 1 89.1879 109.006 101.8
884 1 90.9939 89.1879 98.1999
885 1 90.9939 89.1879 101.8
886 1 90.9939 98.1999 89.1879
887 1 90.9939 98.1999 110.812
888 1 90.9939 101.8 89.1879
889 1 90.9939 101.8 110.812
890 1 90.9939 110.812 98.1999
891 1 90.9939 110.812 101.8
892 1 98.1999 90.9939 89.1879
893 1 98.1999 90.9939 110.812
894 1 98.1999 109.006 89.1879
895 1 98.1999 109.006 110.812
896 1 101.8 90.9939 89.1879
897 1 101.8 90.9939 110.812
898 1 101.8 109.006 89.1879
899 1 101.8 109.006 110.812
900 1 109.006 89.1879 98.1999
901 1 109.006 89.1879 101.8
902 1 109.006 98.1999 89.1879
903 1 109.006 98.1999 110.812
904 1 109.006 101.8 89.1879
905 1 109.006 101.8 110.812
906 1 109.006 110.812 98.1999
907 1 109.006 110.812 101.8
908 1 110.812 90.9939 98.1999
909 1 110.812 90.9939 101.8
910 1 110.812 109.006 98.1999
911 1 110.812 109.006 101.8
912 1 89.2194 89.2194 100
913 1 89.2194 100 89.2194
914 1 89.2194 100 110.781
915 1 89.2194 110.781 100
916 1 100 89.2194 89.2194
917 1 100 89.2194 110.781
918 1 100 110.781 89.2194
919 1 100 110.781 110.781
920 1 110.781 89.2194 100
921 1 110.781 100 89.2194
922 1 110.781 100 110.781
923 1 110.781 110.781 100
