 Start File for LAMMPS

 561 atoms

 1 atom types
 
  -0.0 100.0 xlo xhi
  -0.0 100.0 ylo yhi
  -0.0 100.0 zlo zhi
  
 Masses

 1  63.55
 
 Atoms

1 1 50 50 50
2 1 48.1955 48.1955 50
3 1 48.1955 50 48.1955
4 1 48.1955 50 51.8045
5 1 48.1955 51.8045 50
6 1 50 48.1955 48.1955
7 1 50 48.1955 51.8045
8 1 50 51.8045 48.1955
9 1 50 51.8045 51.8045
10 1 51.8045 48.1955 50
11 1 51.8045 50 48.1955
12 1 51.8045 50 51.8045
13 1 51.8045 51.8045 50
14 1 46.3864 50 50
15 1 50 46.3864 50
16 1 50 50 46.3864
17 1 50 50 53.6136
18 1 50 53.6136 50
19 1 53.6136 50 50
20 1 46.3889 48.1958 48.1958
21 1 46.3889 48.1958 51.8042
22 1 46.3889 51.8042 48.1958
23 1 46.3889 51.8042 51.8042
24 1 48.1958 46.3889 48.1958
25 1 48.1958 46.3889 51.8042
26 1 48.1958 48.1958 46.3889
27 1 48.1958 48.1958 53.6111
28 1 48.1958 51.8042 46.3889
29 1 48.1958 51.8042 53.6111
30 1 48.1958 53.6111 48.1958
31 1 48.1958 53.6111 51.8042
32 1 51.8042 46.3889 48.1958
33 1 51.8042 46.3889 51.8042
34 1 51.8042 48.1958 46.3889
35 1 51.8042 48.1958 53.6111
36 1 51.8042 51.8042 46.3889
37 1 51.8042 51.8042 53.6111
38 1 51.8042 53.6111 48.1958
39 1 51.8042 53.6111 51.8042
40 1 53.6111 48.1958 48.1958
41 1 53.6111 48.1958 51.8042
42 1 53.6111 51.8042 48.1958
43 1 53.6111 51.8042 51.8042
44 1 46.3916 46.3916 50
45 1 46.3916 50 46.3916
46 1 46.3916 50 53.6084
47 1 46.3916 53.6084 50
48 1 50 46.3916 46.3916
49 1 50 46.3916 53.6084
50 1 50 53.6084 46.3916
51 1 50 53.6084 53.6084
52 1 53.6084 46.3916 50
53 1 53.6084 50 46.3916
54 1 53.6084 50 53.6084
55 1 53.6084 53.6084 50
56 1 44.5762 48.1961 50
57 1 44.5762 50 48.1961
58 1 44.5762 50 51.8039
59 1 44.5762 51.8039 50
60 1 48.1961 44.5762 50
61 1 48.1961 50 44.5762
62 1 48.1961 50 55.4238
63 1 48.1961 55.4238 50
64 1 50 44.5762 48.1961
65 1 50 44.5762 51.8039
66 1 50 48.1961 44.5762
67 1 50 48.1961 55.4238
68 1 50 51.8039 44.5762
69 1 50 51.8039 55.4238
70 1 50 55.4238 48.1961
71 1 50 55.4238 51.8039
72 1 51.8039 44.5762 50
73 1 51.8039 50 44.5762
74 1 51.8039 50 55.4238
75 1 51.8039 55.4238 50
76 1 55.4238 48.1961 50
77 1 55.4238 50 48.1961
78 1 55.4238 50 51.8039
79 1 55.4238 51.8039 50
80 1 46.389 46.389 46.389
81 1 46.389 46.389 53.611
82 1 46.389 53.611 46.389
83 1 46.389 53.611 53.611
84 1 53.611 46.389 46.389
85 1 53.611 46.389 53.611
86 1 53.611 53.611 46.389
87 1 53.611 53.611 53.611
88 1 44.5831 46.3924 48.1957
89 1 44.5831 46.3924 51.8043
90 1 44.5831 48.1957 46.3924
91 1 44.5831 48.1957 53.6076
92 1 44.5831 51.8043 46.3924
93 1 44.5831 51.8043 53.6076
94 1 44.5831 53.6076 48.1957
95 1 44.5831 53.6076 51.8043
96 1 46.3924 44.5831 48.1957
97 1 46.3924 44.5831 51.8043
98 1 46.3924 48.1957 44.5831
99 1 46.3924 48.1957 55.4169
100 1 46.3924 51.8043 44.5831
101 1 46.3924 51.8043 55.4169
102 1 46.3924 55.4169 48.1957
103 1 46.3924 55.4169 51.8043
104 1 48.1957 44.5831 46.3924
105 1 48.1957 44.5831 53.6076
106 1 48.1957 46.3924 44.5831
107 1 48.1957 46.3924 55.4169
108 1 48.1957 53.6076 44.5831
109 1 48.1957 53.6076 55.4169
110 1 48.1957 55.4169 46.3924
111 1 48.1957 55.4169 53.6076
112 1 51.8043 44.5831 46.3924
113 1 51.8043 44.5831 53.6076
114 1 51.8043 46.3924 44.5831
115 1 51.8043 46.3924 55.4169
116 1 51.8043 53.6076 44.5831
117 1 51.8043 53.6076 55.4169
118 1 51.8043 55.4169 46.3924
119 1 51.8043 55.4169 53.6076
120 1 53.6076 44.5831 48.1957
121 1 53.6076 44.5831 51.8043
122 1 53.6076 48.1957 44.5831
123 1 53.6076 48.1957 55.4169
124 1 53.6076 51.8043 44.5831
125 1 53.6076 51.8043 55.4169
126 1 53.6076 55.4169 48.1957
127 1 53.6076 55.4169 51.8043
128 1 55.4169 46.3924 48.1957
129 1 55.4169 46.3924 51.8043
130 1 55.4169 48.1957 46.3924
131 1 55.4169 48.1957 53.6076
132 1 55.4169 51.8043 46.3924
133 1 55.4169 51.8043 53.6076
134 1 55.4169 53.6076 48.1957
135 1 55.4169 53.6076 51.8043
136 1 44.5906 44.5906 50
137 1 44.5906 50 44.5906
138 1 44.5906 50 55.4094
139 1 44.5906 55.4094 50
140 1 50 44.5906 44.5906
141 1 50 44.5906 55.4094
142 1 50 55.4094 44.5906
143 1 50 55.4094 55.4094
144 1 55.4094 44.5906 50
145 1 55.4094 50 44.5906
146 1 55.4094 50 55.4094
147 1 55.4094 55.4094 50
148 1 42.7589 50 50
149 1 50 42.7589 50
150 1 50 50 42.7589
151 1 50 50 57.2411
152 1 50 57.2411 50
153 1 57.2411 50 50
154 1 42.7627 48.1956 48.1956
155 1 42.7627 48.1956 51.8044
156 1 42.7627 51.8044 48.1956
157 1 42.7627 51.8044 51.8044
158 1 48.1956 42.7627 48.1956
159 1 48.1956 42.7627 51.8044
160 1 48.1956 48.1956 42.7627
161 1 48.1956 48.1956 57.2373
162 1 48.1956 51.8044 42.7627
163 1 48.1956 51.8044 57.2373
164 1 48.1956 57.2373 48.1956
165 1 48.1956 57.2373 51.8044
166 1 51.8044 42.7627 48.1956
167 1 51.8044 42.7627 51.8044
168 1 51.8044 48.1956 42.7627
169 1 51.8044 48.1956 57.2373
170 1 51.8044 51.8044 42.7627
171 1 51.8044 51.8044 57.2373
172 1 51.8044 57.2373 48.1956
173 1 51.8044 57.2373 51.8044
174 1 57.2373 48.1956 48.1956
175 1 57.2373 48.1956 51.8044
176 1 57.2373 51.8044 48.1956
177 1 57.2373 51.8044 51.8044
178 1 42.7666 46.3924 50
179 1 42.7666 50 46.3924
180 1 42.7666 50 53.6076
181 1 42.7666 53.6076 50
182 1 46.3924 42.7666 50
183 1 46.3924 50 42.7666
184 1 46.3924 50 57.2334
185 1 46.3924 57.2334 50
186 1 50 42.7666 46.3924
187 1 50 42.7666 53.6076
188 1 50 46.3924 42.7666
189 1 50 46.3924 57.2334
190 1 50 53.6076 42.7666
191 1 50 53.6076 57.2334
192 1 50 57.2334 46.3924
193 1 50 57.2334 53.6076
194 1 53.6076 42.7666 50
195 1 53.6076 50 42.7666
196 1 53.6076 50 57.2334
197 1 53.6076 57.2334 50
198 1 57.2334 46.3924 50
199 1 57.2334 50 46.3924
200 1 57.2334 50 53.6076
201 1 57.2334 53.6076 50
202 1 44.582 44.582 46.3872
203 1 44.582 44.582 53.6128
204 1 44.582 46.3872 44.582
205 1 44.582 46.3872 55.418
206 1 44.582 53.6128 44.582
207 1 44.582 53.6128 55.418
208 1 44.582 55.418 46.3872
209 1 44.582 55.418 53.6128
210 1 46.3872 44.582 44.582
211 1 46.3872 44.582 55.418
212 1 46.3872 55.418 44.582
213 1 46.3872 55.418 55.418
214 1 53.6128 44.582 44.582
215 1 53.6128 44.582 55.418
216 1 53.6128 55.418 44.582
217 1 53.6128 55.418 55.418
218 1 55.418 44.582 46.3872
219 1 55.418 44.582 53.6128
220 1 55.418 46.3872 44.582
221 1 55.418 46.3872 55.418
222 1 55.418 53.6128 44.582
223 1 55.418 53.6128 55.418
224 1 55.418 55.418 46.3872
225 1 55.418 55.418 53.6128
226 1 42.7756 46.392 46.392
227 1 42.7756 46.392 53.608
228 1 42.7756 53.608 46.392
229 1 42.7756 53.608 53.608
230 1 46.392 42.7756 46.392
231 1 46.392 42.7756 53.608
232 1 46.392 46.392 42.7756
233 1 46.392 46.392 57.2244
234 1 46.392 53.608 42.7756
235 1 46.392 53.608 57.2244
236 1 46.392 57.2244 46.392
237 1 46.392 57.2244 53.608
238 1 53.608 42.7756 46.392
239 1 53.608 42.7756 53.608
240 1 53.608 46.392 42.7756
241 1 53.608 46.392 57.2244
242 1 53.608 53.608 42.7756
243 1 53.608 53.608 57.2244
244 1 53.608 57.2244 46.392
245 1 53.608 57.2244 53.608
246 1 57.2244 46.392 46.392
247 1 57.2244 46.392 53.608
248 1 57.2244 53.608 46.392
249 1 57.2244 53.608 53.608
250 1 42.7797 44.5911 48.1958
251 1 42.7797 44.5911 51.8042
252 1 42.7797 48.1958 44.5911
253 1 42.7797 48.1958 55.4089
254 1 42.7797 51.8042 44.5911
255 1 42.7797 51.8042 55.4089
256 1 42.7797 55.4089 48.1958
257 1 42.7797 55.4089 51.8042
258 1 44.5911 42.7797 48.1958
259 1 44.5911 42.7797 51.8042
260 1 44.5911 48.1958 42.7797
261 1 44.5911 48.1958 57.2203
262 1 44.5911 51.8042 42.7797
263 1 44.5911 51.8042 57.2203
264 1 44.5911 57.2203 48.1958
265 1 44.5911 57.2203 51.8042
266 1 48.1958 42.7797 44.5911
267 1 48.1958 42.7797 55.4089
268 1 48.1958 44.5911 42.7797
269 1 48.1958 44.5911 57.2203
270 1 48.1958 55.4089 42.7797
271 1 48.1958 55.4089 57.2203
272 1 48.1958 57.2203 44.5911
273 1 48.1958 57.2203 55.4089
274 1 51.8042 42.7797 44.5911
275 1 51.8042 42.7797 55.4089
276 1 51.8042 44.5911 42.7797
277 1 51.8042 44.5911 57.2203
278 1 51.8042 55.4089 42.7797
279 1 51.8042 55.4089 57.2203
280 1 51.8042 57.2203 44.5911
281 1 51.8042 57.2203 55.4089
282 1 55.4089 42.7797 48.1958
283 1 55.4089 42.7797 51.8042
284 1 55.4089 48.1958 42.7797
285 1 55.4089 48.1958 57.2203
286 1 55.4089 51.8042 42.7797
287 1 55.4089 51.8042 57.2203
288 1 55.4089 57.2203 48.1958
289 1 55.4089 57.2203 51.8042
290 1 57.2203 44.5911 48.1958
291 1 57.2203 44.5911 51.8042
292 1 57.2203 48.1958 44.5911
293 1 57.2203 48.1958 55.4089
294 1 57.2203 51.8042 44.5911
295 1 57.2203 51.8042 55.4089
296 1 57.2203 55.4089 48.1958
297 1 57.2203 55.4089 51.8042
298 1 42.7934 42.7934 50
299 1 42.7934 50 42.7934
300 1 42.7934 50 57.2066
301 1 42.7934 57.2066 50
302 1 50 42.7934 42.7934
303 1 50 42.7934 57.2066
304 1 50 57.2066 42.7934
305 1 50 57.2066 57.2066
306 1 57.2066 42.7934 50
307 1 57.2066 50 42.7934
308 1 57.2066 50 57.2066
309 1 57.2066 57.2066 50
310 1 40.9581 48.1951 50
311 1 40.9581 50 48.1951
312 1 40.9581 50 51.8049
313 1 40.9581 51.8049 50
314 1 48.1951 40.9581 50
315 1 48.1951 50 40.9581
316 1 48.1951 50 59.0419
317 1 48.1951 59.0419 50
318 1 50 40.9581 48.1951
319 1 50 40.9581 51.8049
320 1 50 48.1951 40.9581
321 1 50 48.1951 59.0419
322 1 50 51.8049 40.9581
323 1 50 51.8049 59.0419
324 1 50 59.0419 48.1951
325 1 50 59.0419 51.8049
326 1 51.8049 40.9581 50
327 1 51.8049 50 40.9581
328 1 51.8049 50 59.0419
329 1 51.8049 59.0419 50
330 1 59.0419 48.1951 50
331 1 59.0419 50 48.1951
332 1 59.0419 50 51.8049
333 1 59.0419 51.8049 50
334 1 40.965 46.3913 48.1949
335 1 40.965 46.3913 51.8051
336 1 40.965 48.1949 46.3913
337 1 40.965 48.1949 53.6087
338 1 40.965 51.8051 46.3913
339 1 40.965 51.8051 53.6087
340 1 40.965 53.6087 48.1949
341 1 40.965 53.6087 51.8051
342 1 46.3913 40.965 48.1949
343 1 46.3913 40.965 51.8051
344 1 46.3913 48.1949 40.965
345 1 46.3913 48.1949 59.035
346 1 46.3913 51.8051 40.965
347 1 46.3913 51.8051 59.035
348 1 46.3913 59.035 48.1949
349 1 46.3913 59.035 51.8051
350 1 48.1949 40.965 46.3913
351 1 48.1949 40.965 53.6087
352 1 48.1949 46.3913 40.965
353 1 48.1949 46.3913 59.035
354 1 48.1949 53.6087 40.965
355 1 48.1949 53.6087 59.035
356 1 48.1949 59.035 46.3913
357 1 48.1949 59.035 53.6087
358 1 51.8051 40.965 46.3913
359 1 51.8051 40.965 53.6087
360 1 51.8051 46.3913 40.965
361 1 51.8051 46.3913 59.035
362 1 51.8051 53.6087 40.965
363 1 51.8051 53.6087 59.035
364 1 51.8051 59.035 46.3913
365 1 51.8051 59.035 53.6087
366 1 53.6087 40.965 48.1949
367 1 53.6087 40.965 51.8051
368 1 53.6087 48.1949 40.965
369 1 53.6087 48.1949 59.035
370 1 53.6087 51.8051 40.965
371 1 53.6087 51.8051 59.035
372 1 53.6087 59.035 48.1949
373 1 53.6087 59.035 51.8051
374 1 59.035 46.3913 48.1949
375 1 59.035 46.3913 51.8051
376 1 59.035 48.1949 46.3913
377 1 59.035 48.1949 53.6087
378 1 59.035 51.8051 46.3913
379 1 59.035 51.8051 53.6087
380 1 59.035 53.6087 48.1949
381 1 59.035 53.6087 51.8051
382 1 40.9716 44.5901 50
383 1 40.9716 50 44.5901
384 1 40.9716 50 55.4099
385 1 40.9716 55.4099 50
386 1 42.7707 44.5757 44.5757
387 1 42.7707 44.5757 55.4243
388 1 42.7707 55.4243 44.5757
389 1 42.7707 55.4243 55.4243
390 1 44.5901 40.9716 50
391 1 44.5757 42.7707 44.5757
392 1 44.5757 42.7707 55.4243
393 1 44.5757 44.5757 42.7707
394 1 44.5757 44.5757 57.2293
395 1 44.5901 50 40.9716
396 1 44.5901 50 59.0284
397 1 44.5757 55.4243 42.7707
398 1 44.5757 55.4243 57.2293
399 1 44.5757 57.2293 44.5757
400 1 44.5757 57.2293 55.4243
401 1 44.5901 59.0284 50
402 1 50 40.9716 44.5901
403 1 50 40.9716 55.4099
404 1 50 44.5901 40.9716
405 1 50 44.5901 59.0284
406 1 50 55.4099 40.9716
407 1 50 55.4099 59.0284
408 1 50 59.0284 44.5901
409 1 50 59.0284 55.4099
410 1 55.4099 40.9716 50
411 1 55.4243 42.7707 44.5757
412 1 55.4243 42.7707 55.4243
413 1 55.4243 44.5757 42.7707
414 1 55.4243 44.5757 57.2293
415 1 55.4099 50 40.9716
416 1 55.4099 50 59.0284
417 1 55.4243 55.4243 42.7707
418 1 55.4243 55.4243 57.2293
419 1 55.4243 57.2293 44.5757
420 1 55.4243 57.2293 55.4243
421 1 55.4099 59.0284 50
422 1 57.2293 44.5757 44.5757
423 1 57.2293 44.5757 55.4243
424 1 57.2293 55.4243 44.5757
425 1 57.2293 55.4243 55.4243
426 1 59.0284 44.5901 50
427 1 59.0284 50 44.5901
428 1 59.0284 50 55.4099
429 1 59.0284 55.4099 50
430 1 42.7751 42.7751 46.3823
431 1 42.7751 42.7751 53.6177
432 1 42.7751 46.3823 42.7751
433 1 42.7751 46.3823 57.2249
434 1 42.7751 53.6177 42.7751
435 1 42.7751 53.6177 57.2249
436 1 42.7751 57.2249 46.3823
437 1 42.7751 57.2249 53.6177
438 1 46.3823 42.7751 42.7751
439 1 46.3823 42.7751 57.2249
440 1 46.3823 57.2249 42.7751
441 1 46.3823 57.2249 57.2249
442 1 53.6177 42.7751 42.7751
443 1 53.6177 42.7751 57.2249
444 1 53.6177 57.2249 42.7751
445 1 53.6177 57.2249 57.2249
446 1 57.2249 42.7751 46.3823
447 1 57.2249 42.7751 53.6177
448 1 57.2249 46.3823 42.7751
449 1 57.2249 46.3823 57.2249
450 1 57.2249 53.6177 42.7751
451 1 57.2249 53.6177 57.2249
452 1 57.2249 57.2249 46.3823
453 1 57.2249 57.2249 53.6177
454 1 40.9864 44.595 46.3961
455 1 40.9864 44.595 53.6039
456 1 40.9864 46.3961 44.595
457 1 40.9864 46.3961 55.405
458 1 40.9864 53.6039 44.595
459 1 40.9864 53.6039 55.405
460 1 40.9864 55.405 46.3961
461 1 40.9864 55.405 53.6039
462 1 44.595 40.9864 46.3961
463 1 44.595 40.9864 53.6039
464 1 44.595 46.3961 40.9864
465 1 44.595 46.3961 59.0136
466 1 44.595 53.6039 40.9864
467 1 44.595 53.6039 59.0136
468 1 44.595 59.0136 46.3961
469 1 44.595 59.0136 53.6039
470 1 46.3961 40.9864 44.595
471 1 46.3961 40.9864 55.405
472 1 46.3961 44.595 40.9864
473 1 46.3961 44.595 59.0136
474 1 46.3961 55.405 40.9864
475 1 46.3961 55.405 59.0136
476 1 46.3961 59.0136 44.595
477 1 46.3961 59.0136 55.405
478 1 53.6039 40.9864 44.595
479 1 53.6039 40.9864 55.405
480 1 53.6039 44.595 40.9864
481 1 53.6039 44.595 59.0136
482 1 53.6039 55.405 40.9864
483 1 53.6039 55.405 59.0136
484 1 53.6039 59.0136 44.595
485 1 53.6039 59.0136 55.405
486 1 55.405 40.9864 46.3961
487 1 55.405 40.9864 53.6039
488 1 55.405 46.3961 40.9864
489 1 55.405 46.3961 59.0136
490 1 55.405 53.6039 40.9864
491 1 55.405 53.6039 59.0136
492 1 55.405 59.0136 46.3961
493 1 55.405 59.0136 53.6039
494 1 59.0136 44.595 46.3961
495 1 59.0136 44.595 53.6039
496 1 59.0136 46.3961 44.595
497 1 59.0136 46.3961 55.405
498 1 59.0136 53.6039 44.595
499 1 59.0136 53.6039 55.405
500 1 59.0136 55.405 46.3961
501 1 59.0136 55.405 53.6039
502 1 40.9928 42.7988 48.2005
503 1 40.9928 42.7988 51.7995
504 1 40.9928 57.2012 48.2005
505 1 40.9928 57.2012 51.7995
506 1 42.7988 40.9928 48.2005
507 1 42.7988 40.9928 51.7995
508 1 42.7988 59.0072 48.2005
509 1 42.7988 59.0072 51.7995
510 1 57.2012 40.9928 48.2005
511 1 57.2012 40.9928 51.7995
512 1 57.2012 59.0072 48.2005
513 1 57.2012 59.0072 51.7995
514 1 59.0072 42.7988 48.2005
515 1 59.0072 42.7988 51.7995
516 1 59.0072 57.2012 48.2005
517 1 59.0072 57.2012 51.7995
518 1 40.9928 48.2005 42.7988
519 1 40.9928 48.2005 57.2012
520 1 40.9928 51.7995 42.7988
521 1 40.9928 51.7995 57.2012
522 1 42.7988 48.2005 40.9928
523 1 42.7988 48.2005 59.0072
524 1 42.7988 51.7995 40.9928
525 1 42.7988 51.7995 59.0072
526 1 48.2005 40.9928 42.7988
527 1 48.2005 40.9928 57.2012
528 1 48.2005 42.7988 40.9928
529 1 48.2005 42.7988 59.0072
530 1 48.2005 57.2012 40.9928
531 1 48.2005 57.2012 59.0072
532 1 48.2005 59.0072 42.7988
533 1 48.2005 59.0072 57.2012
534 1 51.7995 40.9928 42.7988
535 1 51.7995 40.9928 57.2012
536 1 51.7995 42.7988 40.9928
537 1 51.7995 42.7988 59.0072
538 1 51.7995 57.2012 40.9928
539 1 51.7995 57.2012 59.0072
540 1 51.7995 59.0072 42.7988
541 1 51.7995 59.0072 57.2012
542 1 57.2012 48.2005 40.9928
543 1 57.2012 48.2005 59.0072
544 1 57.2012 51.7995 40.9928
545 1 57.2012 51.7995 59.0072
546 1 59.0072 48.2005 42.7988
547 1 59.0072 48.2005 57.2012
548 1 59.0072 51.7995 42.7988
549 1 59.0072 51.7995 57.2012
550 1 41.024 41.024 50
551 1 41.024 50 41.024
552 1 41.024 50 58.976
553 1 41.024 58.976 50
554 1 50 41.024 41.024
555 1 50 41.024 58.976
556 1 50 58.976 41.024
557 1 50 58.976 58.976
558 1 58.976 41.024 50
559 1 58.976 50 41.024
560 1 58.976 50 58.976
561 1 58.976 58.976 50
