LAMMPS (21 Jul 2020)
OMP_NUM_THREADS environment is not set. Defaulting to 1 thread. (src/src/comm.cpp:95)
  using 1 OpenMP thread(s) per MPI task
# Initialization

units		  metal
dimension 	      3
boundary	  f f f
atom_style	 atomic


# Atom Definition

read_data atom_definition.txt
  orthogonal box = (-0.0000000 -0.0000000 -0.0000000) to (200.00000 200.00000 200.00000)
  1 by 1 by 1 MPI processor grid
  reading atoms ...
  923 atoms
  read_data CPU = 0.046 seconds


# Settings

pair_style eam/alloy
pair_coeff	* * CuAgAu_Zhou04.eam.alloy Cu Ag
Reading eam/alloy potential file CuAgAu_Zhou04.eam.alloy with DATE: 2018-03-30

velocity         all create 400 12345 mom yes rot yes dist gaussian
timestep         0.002
fix              1 all nvt temp 400 400 $(100.0*dt) drag 0.0 tchain 1
fix              1 all nvt temp 400 400 0.2000000000000000111 drag 0.0 tchain 1
fix              2 all atom/swap 10 10 12345 400  types 1 2
fix              3 all recenter INIT INIT INIT


dump myDump all custom 200 trajectory.txt id type x y z
dump_modify myDump sort id

thermo 200


# Run a simulation

run              500000
Neighbor list info ...
  update every 1 steps, delay 10 steps, check yes
  max neighbors/atom: 2000, page size: 100000
  master list distance cutoff = 8.4662927
  ghost atom cutoff = 8.4662927
  binsize = 4.2331463, bins = 48 48 48
  1 neighbor lists, perpetual/occasional/extra = 1 0 0
  (1) pair eam/alloy, perpetual
      attributes: half, newton on
      pair build: half/bin/atomonly/newton
      stencil: half/bin/3d/newton
      bin: standard
Per MPI rank memory allocation (min/avg/max) = 5.189 | 5.189 | 5.189 Mbytes
Step Temp E_pair E_mol TotEng Press 
       0          400   -2375.1558            0   -2327.4846   -112.37821 
     200    296.29023    -2576.477            0   -2541.1657   -7.6474586 
     400    165.60668   -2621.5792            0   -2601.8425    6.1299704 
     600    486.57854   -2603.0091            0   -2545.0197   -8.0012833 
     800    501.49217   -2587.5499            0   -2527.7831   -20.397943 
    1000    274.95237   -2632.0147            0   -2599.2464     12.95154 
    1200    353.85348   -2627.4769            0   -2585.3054   -8.7382649 
    1400    558.72268   -2603.1981            0   -2536.6107   -2.5098748 
    1600    336.48314   -2632.0865            0   -2591.9852   -6.1922178 
    1800    320.55449   -2639.2079            0   -2601.0049    9.2594944 
    2000    498.01818   -2619.1855            0   -2559.8328   -16.187255 
    2200    418.08773   -2629.9942            0   -2580.1674    6.6159192 
    2400    310.79361   -2647.0786            0   -2610.0389    2.3926896 
    2600    434.16033   -2636.1378            0   -2584.3955    1.1797304 
    2800    463.85882   -2633.6779            0   -2578.3962   -10.960148 
    3000    354.80708   -2650.9062            0   -2608.6211    9.9381634 
    3200    379.86662   -2648.9694            0   -2603.6977   -3.7610355 
    3400    455.00154   -2636.4022            0   -2582.1761    -5.657547 
    3600    393.24895   -2647.6421            0   -2600.7755  -0.78889936 
    3800     354.3014    -2653.927            0   -2611.7021     1.404478 
    4000    420.42741   -2645.3413            0   -2595.2357    -5.923019 
    4200    408.19951   -2646.5754            0    -2597.927    5.1769191 
    4400     366.7701   -2656.2826            0   -2612.5717   -2.4435288 
    4600    408.50427   -2652.9844            0   -2604.2997    4.0083546 
    4800    425.91624   -2647.3206            0   -2596.5608    -3.330403 
    5000    392.83766   -2657.4728            0   -2610.6552    2.3381191 
    5200    389.31637   -2659.0959            0    -2612.698    3.7962405 
    5400    440.27386   -2652.0032            0   -2599.5323    2.5367521 
    5600    394.57273   -2653.7677            0   -2606.7434    1.2294588 
    5800    375.94135   -2659.5806            0   -2614.7767    3.4530022 
    6000    396.17384   -2653.8949            0   -2606.6798   -5.3724669 
    6200    415.26126   -2656.5034            0   -2607.0135    2.1353041 
    6400    371.90824   -2661.5134            0   -2617.1902     2.768386 
    6600    400.79095   -2657.7245            0   -2609.9591   -3.9787657 
    6800    425.56211   -2655.4305            0   -2604.7129 -0.057629124 
    7000    390.00779   -2662.6488            0   -2616.1685   0.54332088 
    7200     384.2693    -2660.924            0   -2615.1276    3.0421103 
    7400    423.14286   -2656.8034            0   -2606.3741   -1.9370182 
    7600    388.77281   -2660.7125            0   -2614.3794    2.6662246 
    7800    381.38593    -2662.819            0   -2617.3662    1.2562544 
    8000    412.26048   -2657.2814            0    -2608.149  -0.71360053 
    8200    413.49788   -2661.9294            0   -2612.6496  -0.19909337 
    8400    389.00578   -2665.6424            0   -2619.2815  -0.91866823 
    8600    418.48018   -2663.9963            0   -2614.1227    5.1396096 
    8800    419.48137   -2660.1007            0   -2610.1078   0.33918405 
    9000    380.93949   -2662.8008            0   -2617.4012   -0.7089055 
    9200    383.69414   -2663.6785            0   -2617.9506   -3.3808157 
    9400    406.50548   -2659.7299            0   -2611.2835   -2.7087002 
    9600    407.31586   -2662.0765            0   -2613.5335   -2.3316994 
    9800    376.32248   -2664.6298            0   -2619.7804  -0.76438568 
   10000    414.25136   -2664.2366            0   -2614.8671    1.6219832 
   10200    421.36291   -2662.2841            0    -2612.067    1.1287092 
   10400    369.70744   -2664.8235            0   -2620.7626    2.3265534 
   10600    400.43909   -2664.6119            0   -2616.8884  -0.01120864 
   10800    413.34617   -2660.7989            0   -2611.5372   0.33272328 
   11000    395.81054   -2665.9778            0    -2618.806   0.47613941 
   11200    385.68685   -2667.0579            0   -2621.0926   -0.1318535 
   11400    410.07264    -2661.981            0   -2613.1094    4.6863426 
   11600    409.65667   -2662.9844            0   -2614.1624    1.8684448 
   11800    390.03121   -2668.0685            0   -2621.5854    1.2372483 
   12000    398.84067   -2665.6592            0   -2618.1263    1.1878344 
   12200    412.49812   -2663.1143            0   -2613.9536   -2.8697543 
   12400     400.2729   -2666.9855            0   -2619.2818     0.436636 
   12600    381.90662   -2666.5817            0   -2621.0669  -0.53196608 
   12800    417.61666    -2663.095            0   -2613.3243    4.0985463 
   13000    395.81026   -2665.1548            0   -2617.9829   -3.2447629 
   13200    384.52259   -2667.3503            0   -2621.5237   0.31178429 
   13400    411.04578   -2662.6913            0   -2613.7037    1.5852404 
   13600    405.62942   -2662.8515            0   -2614.5095    -1.196374 
   13800    380.83293   -2667.9192            0   -2622.5323    0.7311939 
   14000    391.46414   -2663.5584            0   -2616.9045    3.4525472 
   14200    442.22252   -2663.9543            0   -2611.2512  -0.21161277 
   14400    376.68067   -2668.3226            0   -2623.4306    2.2150253 
   14600    400.17381   -2667.5665            0   -2619.8746    -1.508278 
   14800    435.34064   -2661.8855            0   -2610.0026  -0.25916358 
   15000    386.76692   -2667.3064            0   -2621.2124   -1.5413212 
   15200     384.0283   -2668.0996            0    -2622.332      1.64008 
   15400     409.2086   -2660.5549            0   -2611.7863    2.2863577 
   15600    400.63004   -2663.7187            0   -2615.9725  -0.84539464 
   15800    382.72114     -2668.54            0   -2622.9281    4.9838279 
   16000     402.6056   -2664.9098            0   -2616.9281   0.36578854 
   16200    407.32374   -2662.2239            0   -2613.6799    2.2654664 
   16400    402.65932   -2668.7154            0   -2620.7273   -3.1826657 
   16600    383.57011   -2666.8595            0   -2621.1464    2.4618486 
   16800    408.48208   -2662.0278            0   -2613.3458   -4.0111278 
   17000    401.56979   -2665.8261            0   -2617.9679  -0.72550801 
   17200    385.53318    -2668.362            0    -2622.415   -3.7430511 
   17400    425.88192   -2666.0038            0   -2615.2481   -3.1132141 
   17600    402.39171   -2664.5541            0   -2616.5979   -2.7709791 
   17800    387.63597   -2668.1703            0   -2621.9727   0.83845633 
   18000     397.1736   -2665.8928            0   -2618.5585   -5.3381555 
   18200    411.94018   -2663.7254            0   -2614.6312    -1.899108 
   18400    390.49161   -2666.8596            0   -2620.3216      2.03104 
   18600    403.87777   -2668.3909            0   -2620.2577   -1.2154353 
   18800    411.76085   -2664.3262            0   -2615.2534    4.2777391 
   19000    410.47943   -2666.3557            0   -2617.4356   -3.8776008 
   19200    395.56793   -2666.8342            0   -2619.6913   0.31332444 
   19400    393.34361    -2665.494            0   -2618.6162   -1.1975855 
   19600     392.5433   -2664.4583            0   -2617.6759    3.1672128 
   19800    406.86853   -2668.7068            0   -2620.2171   -1.7848672 
   20000    399.45164   -2667.4398            0    -2619.834  -0.26368432 
   20200    411.21738   -2666.5874            0   -2617.5793   -2.4949298 
   20400    404.35544   -2667.1981            0   -2619.0079    -1.484145 
   20600     383.9091   -2667.7426            0   -2621.9892   0.45012272 
   20800    388.64861   -2666.7895            0   -2620.4712   -1.4172475 
   21000    412.60877   -2667.1366            0   -2617.9628   -4.7092837 
   21200    400.20404   -2668.1201            0   -2620.4246    1.6825856 
   21400    397.09715   -2668.1308            0   -2620.8056   -8.4805642 
   21600    412.08226   -2666.9578            0   -2617.8467    6.3107427 
   21800    394.99909   -2668.1171            0    -2621.042   -10.395765 
   22000    409.96265   -2670.7689            0   -2621.9104    9.9528702 
   22200    399.19132   -2667.6978            0   -2620.1231   -10.449924 
   22400    404.31992   -2667.3151            0   -2619.1292    2.7127751 
   22600    397.92641   -2671.9872            0   -2624.5632   -7.7962289 
   22800    411.04064   -2667.8386            0   -2618.8517     5.336151 
   23000    400.17854   -2665.1001            0   -2617.4077    -6.044687 
   23200    402.88867   -2669.5693            0   -2621.5539    5.2474975 
   23400    388.78362   -2669.5561            0   -2623.2217    -3.204882 
   23600    431.11451   -2667.9686            0   -2616.5893  -0.77935565 
   23800    378.87325   -2666.2581            0   -2621.1048   0.62866454 
   24000    394.83782   -2670.4678            0   -2623.4119     2.546232 
   24200    409.23883   -2668.3812            0    -2619.609  -0.62115028 
   24400    402.38608   -2667.1283            0   -2619.1728    3.1737372 
   24600    389.92071   -2669.1402            0   -2622.6703   -3.0424169 
   24800    394.69269   -2668.3521            0   -2621.3134    2.4934804 
   25000    394.31741   -2667.1131            0   -2620.1192   -3.5564524 
   25200    390.22711   -2668.4972            0   -2621.9908    3.6917316 
   25400    397.73048   -2669.0601            0   -2621.6595   -1.1768426 
   25600     421.1517   -2670.0586            0   -2619.8666    1.5223708 
   25800    400.09636   -2668.5857            0   -2620.9031   -3.6470061 
   26000     410.5367    -2670.594            0   -2621.6672  -0.74593641 
   26200    385.11652   -2667.3894            0   -2621.4921    2.8871869 
   26400    396.68672   -2667.9448            0   -2620.6685  -0.30852853 
   26600    401.27771   -2668.8463            0   -2621.0229   0.97929345 
   26800    401.17905   -2668.7599            0   -2620.9483    2.0757026 
   27000    411.91911   -2670.2025            0   -2621.1109   -2.7583429 
   27200    407.77039   -2669.6076            0   -2621.0104   -1.3825275 
   27400    399.71112    -2669.522            0   -2621.8853   -1.0623442 
   27600    390.42596   -2668.1694            0   -2621.6393  -0.41382259 
   27800    402.00779   -2667.1547            0   -2619.2443    0.2322655 
   28000    396.05333   -2669.5193            0   -2622.3185   -1.9667471 
   28200     395.2996   -2670.2343            0   -2623.1234    2.5571668 
   28400    395.74445   -2667.4787            0   -2620.3148   -2.6433195 
   28600      417.159   -2670.0748            0   -2620.3587   -1.7959223 
   28800     380.9199   -2668.7407            0   -2623.3435  0.020160587 
   29000    407.11799   -2671.0236            0   -2622.5041    1.3354548 
   29200    405.31172   -2667.4177            0   -2619.1135   -1.9408315 
   29400    392.68266     -2669.11            0   -2622.3109    2.3369451 
   29600     388.6813   -2670.4658            0   -2624.1436    2.5177829 
   29800    405.14554   -2668.3137            0   -2620.0293  -0.63245029 
   30000    395.90797   -2667.2866            0   -2620.1032     4.698001 
   30200    378.46548   -2671.1328            0   -2626.0281   -2.3473324 
   30400     403.2247   -2669.6823            0   -2621.6269    6.0227064 
   30600    415.16522   -2669.5171            0   -2620.0386   -1.7585527 
   30800    381.25409   -2670.2189            0   -2624.7819    3.1643368 
   31000     381.7112   -2669.5163            0   -2624.0248    2.5584902 
   31200    415.00872   -2669.5477            0   -2620.0878  -0.12015457 
   31400    395.93168   -2670.0154            0   -2622.8291     7.569637 
   31600    372.94089   -2668.5283            0   -2624.0821    -1.256601 
   31800    401.81661   -2668.6159            0   -2620.7282    2.9297284 
   32000    392.89743   -2669.4293            0   -2622.6046    1.9814443 
   32200    386.50573   -2670.2808            0   -2624.2179     2.712024 
   32400    404.23004   -2669.0468            0   -2620.8716    2.8097482 
   32600    409.46393   -2669.7314            0   -2620.9324   -2.7357732 
   32800    385.69758   -2671.8326            0    -2625.866    3.7367409 
   33000    405.04416   -2672.3479            0   -2624.0756   -4.0567155 
   33200    415.98937   -2668.2084            0   -2618.6317    3.8586149 
   33400    393.60929   -2672.5901            0   -2625.6805    -1.892122 
   33600    386.27985   -2670.7826            0   -2624.7466   0.90737951 
   33800    436.84142   -2669.8847            0   -2617.8228   -1.2331472 
   34000    393.48202   -2670.0478            0   -2623.1535    1.9878249 
   34200    385.91418   -2673.8918            0   -2627.8994    3.5739213 
   34400    414.25148   -2672.1054            0   -2622.7358    -1.614406 
   34600    409.41133   -2668.0947            0    -2619.302  0.073561107 
   34800     391.2583   -2672.1578            0   -2625.5285   0.12926121 
   35000    386.57315   -2671.4983            0   -2625.4274    3.4293039 
   35200     424.0172   -2671.5089            0   -2620.9754   -3.1650382 
   35400    389.07752    -2668.239            0   -2621.8696     4.109862 
   35600    390.52163   -2671.8507            0   -2625.3091   -4.3771651 
   35800    408.46437   -2671.9918            0   -2623.3119    2.2018462 
   36000    396.95416   -2669.2501            0   -2621.9419   -3.7156597 
   36200    404.00471   -2670.8317            0   -2622.6833    6.2980769 
   36400    386.72023   -2672.4635            0    -2626.375    2.1420082 
   36600    390.51366   -2669.0206            0     -2622.48    2.9708649 
   36800    407.39343   -2668.8561            0   -2620.3038     3.654061 
   37000    383.74845   -2672.1303            0    -2626.396    1.5133243 
   37200    397.87532   -2670.5486            0   -2623.1307   -3.2737994 
   37400    411.79091   -2668.5015            0   -2619.4251  -0.12295829 
   37600    380.24897   -2671.5806            0   -2626.2634    1.6937752 
   37800    388.44243   -2670.4318            0    -2624.138  -0.94772889 
   38000    404.49191   -2667.6027            0   -2619.3962   -2.9884453 
   38200     393.3806   -2672.0103            0    -2625.128   -2.1304286 
   38400    385.71706   -2672.0431            0   -2626.0741   0.96653822 
   38600    417.59318   -2668.3111            0   -2618.5432   -1.2402657 
   38800    397.33999   -2670.4296            0   -2623.0754   -0.7222647 
   39000    389.46327   -2674.4635            0   -2628.0481    2.2260906 
   39200    406.22302   -2670.2941            0   -2621.8813   -2.6798728 
   39400      410.725    -2668.735            0   -2619.7857 -0.029444285 
   39600    394.31124   -2674.3049            0   -2627.3118    2.0126092 
   39800    388.46398   -2672.0817            0   -2625.7854   -2.6216044 
   40000    406.11928   -2667.0888            0   -2618.6884   0.30895479 
   40200    384.35547   -2669.5702            0   -2623.7635    1.9211394 
   40400    386.54291   -2673.8765            0   -2627.8092   -2.4582162 
   40600    415.27933   -2670.1761            0    -2620.684    3.2083495 
   40800    391.33923   -2670.1815            0   -2623.5425  -0.38236341 
   41000    382.99581    -2673.771            0   -2628.1264    6.7246334 
   41200    398.44144   -2671.0925            0   -2623.6071   -5.4496587 
   41400    422.82933   -2671.3123            0   -2620.9204    5.5950539 
   41600    398.00026   -2674.5511            0   -2627.1183   -2.1846419 
   41800    395.44839   -2672.2534            0   -2625.1247    2.2683736 
   42000    408.24773   -2671.1705            0   -2622.5165   -1.8372383 
   42200    411.84998   -2674.2545            0   -2625.1711    4.6861093 
   42400    397.21319   -2674.1449            0   -2626.8059   -7.1678497 
   42600     399.6988   -2671.0822            0    -2623.447    6.0464765 
   42800    387.50001    -2671.306            0   -2625.1246   -7.2710782 
   43000     383.9622    -2671.016            0   -2625.2562    5.7856248 
   43200    412.36279    -2673.695            0   -2624.5505   -8.0195757 
   43400    400.04898   -2671.9588            0   -2624.2818      7.50803 
   43600     392.2715   -2672.3505            0   -2625.6005   -8.8595055 
   43800     407.4587   -2672.1013            0   -2623.5412    6.4822525 
   44000    382.70326   -2672.3087            0    -2626.699    -9.224543 
   44200    386.18791   -2671.7366            0   -2625.7116    7.1402384 
   44400    398.23696   -2671.1346            0   -2623.6736   -4.2584875 
   44600    405.78837   -2672.3145            0   -2623.9535    2.2551566 
   44800    392.53877   -2673.0824            0   -2626.3005   -4.0796249 
   45000    402.15262   -2672.2023            0   -2624.2746    6.1690895 
   45200    409.53077   -2672.0992            0   -2623.2922   -2.5397837 
   45400    401.79464   -2673.3517            0   -2625.4667    2.4460943 
   45600    401.45371   -2673.4275            0   -2625.5832   -1.7285205 
   45800    393.99898   -2672.2534            0   -2625.2974    5.0225333 
   46000    397.48768   -2671.3674            0   -2623.9956   -0.5121379 
   46200    401.42576   -2672.6286            0   -2624.7876    5.8534529 
   46400    391.66689   -2673.0239            0   -2626.3458  -0.40454577 
   46600    401.39552   -2672.7739            0   -2624.9365   0.49818854 
   46800    404.94943   -2671.8508            0   -2623.5898  -0.73551179 
   47000    395.62094   -2672.7877            0   -2625.6385    1.5528065 
   47200    411.04809   -2675.5214            0   -2626.5336   -6.6746624 
   47400    401.41935   -2671.7052            0   -2623.8649    5.7775747 
   47600    408.77939   -2672.8846            0   -2624.1672   -6.2355156 
   47800     396.9511   -2672.6872            0   -2625.3794    2.7534041 
   48000    400.92158   -2673.3801            0   -2625.5992   -4.2529851 
   48200    407.28573   -2671.5881            0   -2623.0487    3.5871696 
   48400    392.38809   -2671.7025            0   -2624.9385   -4.8855213 
   48600    398.80757   -2673.8761            0   -2626.3471   0.59157264 
   48800     405.3093   -2672.7102            0   -2624.4063   -6.4143353 
   49000    401.29361   -2670.1761            0   -2622.3508    3.1399232 
   49200    371.28813   -2671.4233            0   -2627.1739   -3.1213055 
   49400    413.29568   -2673.9436            0   -2624.6879   0.39709024 
   49600    396.37384   -2670.0544            0   -2622.8154   -1.6225609 
   49800    408.90255   -2673.4596            0   -2624.7275   0.34907393 
   50000    390.41346   -2672.7765            0   -2626.2479   -2.1504435 
   50200      406.201    -2671.576            0   -2623.1658    3.6070232 
   50400    394.04913   -2672.3493            0   -2625.3874   0.69746646 
   50600    392.57822   -2673.7202            0   -2626.9336   0.41222112 
   50800    407.13455   -2672.0565            0   -2623.5351   -2.8109386 
   51000    403.64771   -2671.9624            0   -2623.8566   -0.8495574 
   51200    405.31837   -2675.9489            0   -2627.6439   -1.4295757 
   51400    405.53778    -2675.143            0   -2626.8118   -3.6552753 
   51600     410.4934   -2671.4711            0   -2622.5493    1.1656716 
   51800    400.39516   -2672.7304            0   -2625.0122   -2.5840132 
   52000    380.43088   -2673.7345            0   -2628.3956     2.573012 
   52200    422.74177   -2674.1946            0   -2623.8131  -0.29751811 
   52400    403.48943   -2672.1565            0   -2624.0695    6.4917358 
   52600     396.9312   -2676.5272            0   -2629.2218   -2.5924871 
   52800    401.21492   -2672.4606            0   -2624.6447    1.6739443 
   53000    417.26416   -2671.6634            0   -2621.9348   -3.7774742 
   53200    397.85378   -2673.3666            0   -2625.9512  -0.40442969 
   53400    398.76573   -2674.9513            0   -2627.4272   -2.8041248 
   53600    416.92571   -2674.0558            0   -2624.3675   -4.4184136 
   53800    395.63215   -2672.0844            0   -2624.9338   -2.8902278 
   54000    380.01393   -2671.8491            0   -2626.5598   -1.4396325 
   54200    394.59576   -2672.3448            0   -2625.3177    1.7981068 
   54400    395.89123   -2671.4686            0   -2624.2871   0.19488783 
   54600    400.50993    -2674.093            0   -2626.3611   0.61379772 
   54800    392.35886   -2673.1522            0   -2626.3918    1.4017858 
   55000    398.42913   -2672.9686            0   -2625.4846   0.82973214 
   55200    401.26622   -2673.6845            0   -2625.8624    1.5383941 
   55400    403.22948    -2673.697            0    -2625.641    2.6503456 
   55600    408.37103   -2673.9414            0   -2625.2726   -4.1702887 
   55800    415.35164   -2674.0439            0   -2624.5432    5.7909144 
   56000    388.13891   -2673.0748            0   -2626.8172   0.55915141 
   56200    403.43252   -2673.1355            0   -2625.0552    4.3399571 
   56400    384.68015   -2671.2783            0    -2625.433   -4.5764418 
   56600    395.32098   -2673.6707            0   -2626.5572    1.9105705 
   56800    394.57559   -2671.9478            0   -2624.9231    -3.391813 
   57000     419.4734   -2673.0034            0   -2623.0115  -0.47628094 
   57200    407.18063   -2674.6973            0   -2626.1704   -4.4000372 
   57400    391.14161   -2672.9048            0   -2626.2894    3.0528442 
   57600    399.33802   -2670.4791            0   -2622.8868    1.8664558 
   57800    400.48695   -2672.8462            0   -2625.1171    1.4101863 
   58000    378.17099    -2673.207            0   -2628.1374   0.97089006 
   58200    403.91924   -2672.1381            0   -2623.9999   0.58258557 
   58400    387.60491   -2669.5912            0   -2623.3972   0.82953995 
   58600    399.71077   -2673.8216            0   -2626.1849   0.37699417 
   58800    411.95515   -2674.1374            0   -2625.0414    2.5556647 
   59000     405.4333    -2673.202            0   -2624.8833   -3.4113741 
   59200    393.32943    -2673.392            0   -2626.5158    5.4735983 
   59400    396.01223   -2673.4197            0   -2626.2239   -3.3124083 
   59600    418.34962   -2674.4054            0   -2624.5474    2.0392858 
   59800     389.4536   -2672.8643            0     -2626.45    -4.212409 
   60000    407.88658   -2674.7738            0   -2626.1627   0.47055521 
   60200      394.707   -2673.6912            0   -2626.6509   -3.3128714 
   60400    396.79657   -2672.2584            0   -2624.9691   0.92552544 
   60600    394.83588   -2672.6753            0   -2625.6196  -0.57852414 
   60800    399.17012   -2674.4419            0   -2626.8696    3.2883244 
   61000    416.21358   -2674.5132            0   -2624.9098    1.6477399 
   61200      411.025   -2673.2754            0   -2624.2903   0.25875286 
   61400    398.25892   -2674.4162            0   -2626.9526   0.20086937 
   61600    396.34237   -2673.1936            0   -2625.9584    0.9171025 
   61800    415.48385   -2673.8164            0   -2624.2999   -1.4792447 
   62000    377.80263   -2672.3393            0   -2627.3136    2.0003287 
   62200    394.79636   -2672.1504            0   -2625.0994    1.6700029 
   62400    395.25199   -2672.1962            0   -2625.0909  -0.93450847 
   62600    408.32777   -2674.2596            0    -2625.596  -0.73278095 
   62800    391.96226   -2673.2798            0   -2626.5666    0.5574261 
   63000    398.65465   -2673.2275            0   -2625.7167    1.2171762 
   63200    394.85371   -2673.0606            0   -2626.0028   0.51042924 
   63400    399.05964   -2672.5391            0     -2624.98   -2.3214835 
   63600    400.43714   -2671.7728            0   -2624.0496    1.5918588 
   63800     389.9409   -2673.6145            0   -2627.1422   0.68223306 
   64000    390.03433   -2673.2894            0    -2626.806    3.4496005 
   64200    408.22664   -2673.0765            0    -2624.425   -1.9133152 
   64400    404.66689   -2673.5095            0   -2625.2822   -2.4527693 
   64600    413.34269   -2675.7034            0   -2626.4421    1.6377293 
   64800    396.45856     -2674.17            0   -2626.9209   -2.7890614 
   65000    406.74611   -2672.8188            0   -2624.3436   0.37028389 
   65200    402.34128   -2673.2469            0   -2625.2968   -1.8926143 
   65400    389.76199   -2675.5329            0   -2629.0819     1.415182 
   65600    414.34083   -2673.9032            0   -2624.5229   -1.6235586 
   65800    398.74403   -2672.4615            0   -2624.9401    -1.869618 
   66000    389.13291   -2675.5544            0   -2629.1784  -0.57222077 
   66200    392.33528   -2672.7787            0    -2626.021    -2.834402 
   66400    410.90348   -2671.9679            0   -2622.9973    1.3395554 
   66600    384.67456   -2673.9556            0   -2628.1109     1.045294 
   66800    385.23372   -2673.6716            0   -2627.7603   0.85705264 
   67000    407.09813   -2671.9051            0   -2623.3881  -0.69240068 
   67200    412.39196   -2674.0884            0   -2624.9404   -1.0058531 
   67400    370.01385   -2673.2223            0   -2629.1248    1.1751592 
   67600    419.98362   -2673.6269            0   -2623.5741   -2.5565804 
   67800    393.37565   -2670.5874            0   -2623.7058 -0.050144792 
   68000    403.50789   -2677.2107            0   -2629.1215    2.1216869 
   68200    395.83059   -2674.0307            0   -2626.8565    0.9317364 
   68400    419.48287   -2672.8172            0   -2622.8241   0.65386079 
   68600     377.8574   -2672.7971            0   -2627.7648   0.49686385 
   68800    400.15268   -2675.9412            0   -2628.2518    3.6047152 
   69000     414.3828   -2673.7894            0   -2624.4042    3.0514721 
   69200    394.61518   -2673.9399            0   -2626.9106    -5.847008 
   69400    393.18402    -2674.426            0   -2627.5671    5.3271546 
   69600    403.80552    -2675.052            0   -2626.9273   -1.1301729 
   69800    414.36147   -2674.5688            0   -2625.1861   -1.1013049 
   70000    402.28003   -2675.1034            0   -2627.1605   -3.0183723 
   70200    391.49115   -2675.1677            0   -2628.5106    1.6371967 
   70400    395.42077   -2672.1743            0   -2625.0489    -5.135693 
   70600    408.75656   -2672.8219            0   -2624.1072    1.9215559 
   70800    375.26453   -2674.8753            0   -2630.1521  -0.47009532 
   71000    413.61765   -2675.1768            0   -2625.8827    3.3829519 
   71200     434.0267   -2673.7433            0   -2622.0169   -4.7433749 
   71400    391.65858    -2676.263            0    -2629.586   0.75465009 
   71600    398.59598   -2675.5735            0   -2628.0697   -2.8124774 
   71800    400.72167   -2671.2517            0   -2623.4945   0.21121762 
   72000    387.37586   -2674.2619            0   -2628.0953   -3.0666603 
   72200    398.45341   -2675.2089            0    -2627.722    1.6351994 
   72400    402.14738   -2673.1781            0    -2625.251   -1.7905158 
   72600     395.8811   -2672.6011            0   -2625.4209    3.0536523 
   72800    410.46166   -2675.7454            0   -2626.8274    3.8249383 
   73000    418.96787   -2676.6404            0   -2626.7087   -1.4151442 
   73200    409.47246   -2673.7806            0   -2624.9805    3.2547261 
   73400    403.80452   -2674.4803            0   -2626.3557   0.74157478 
   73600    404.95284   -2675.5165            0   -2627.2551    2.8310705 
   73800    400.16523   -2674.5577            0   -2626.8669    0.7852877 
   74000    405.87823   -2673.2392            0   -2624.8675    1.3018835 
   74200    397.14905   -2673.8571            0   -2626.5257  -0.18882027 
   74400    402.06086   -2675.1201            0   -2627.2034     -3.11972 
   74600    401.52778    -2672.987            0   -2625.1338   -1.4238596 
   74800    399.91946   -2673.9678            0   -2626.3062   -0.3275616 
   75000    383.75497   -2674.4178            0   -2628.6827    1.1815601 
   75200    407.61916   -2673.4657            0   -2624.8865  -0.18786717 
   75400    417.26496   -2674.1337            0   -2624.4049   -1.7707913 
   75600    374.93385   -2674.2921            0   -2629.6083    3.1646802 
   75800    400.01506   -2673.8491            0   -2626.1762   0.43050815 
   76000    404.13869   -2671.8185            0   -2623.6541   -2.9285393 
   76200    383.27856   -2672.8715            0   -2627.1932      5.58504 
   76400    388.82425   -2673.3901            0   -2627.0509   -2.2968902 
   76600    398.34459    -2671.006            0   -2623.5321    3.5929037 
   76800    395.95146   -2674.0477            0   -2626.8591   -3.5514494 
   77000    394.89931   -2675.1735            0   -2628.1103   0.89201187 
   77200    406.72442   -2672.9977            0   -2624.5252   -2.1221233 
   77400    403.61492   -2672.2181            0   -2624.1161    1.4750871 
   77600    403.66695   -2675.6889            0   -2627.5807  -0.49755396 
   77800      410.745   -2675.5013            0   -2626.5496   0.66279602 
   78000    394.26078   -2670.0416            0   -2623.0544   -5.8049267 
   78200    381.92462   -2672.7355            0   -2627.2186    4.7488401 
   78400    392.23856   -2674.2343            0   -2627.4881   -3.0691308 
   78600     404.1713   -2672.0279            0   -2623.8596    1.7556248 
   78800    398.37324   -2672.9776            0   -2625.5004    -3.916606 
   79000    378.26356   -2672.5832            0   -2627.5025   0.21383794 
   79200    400.69753    -2672.161            0   -2624.4068    2.3012873 
   79400    394.90503   -2671.2615            0   -2624.1976     -1.68884 
   79600    397.84818   -2674.7953            0   -2627.3806    5.7948197 
   79800     383.4595   -2672.7279            0    -2627.028   0.71087932 
   80000    417.19319   -2673.1849            0   -2623.4647   0.94274419 
   80200    397.86385   -2674.1545            0   -2626.7379   -2.2654198 
   80400      387.569   -2673.9706            0    -2627.781    1.9582348 
   80600    400.77699   -2671.7052            0   -2623.9415  -0.80729548 
   80800    418.18526   -2674.9545            0   -2625.1161     3.702507 
   81000     393.6599   -2675.4651            0   -2628.5496    -1.004891 
   81200    415.74622   -2672.5655            0   -2623.0178     1.836778 
   81400    396.22626    -2672.035            0   -2624.8136    3.4080151 
   81600    379.05461   -2673.7692            0   -2628.5943   -1.8219451 
   81800    395.84987   -2672.9878            0   -2625.8112    3.7738012 
   82000     403.6376   -2671.7645            0   -2623.6598   -6.5892333 
   82200    395.11759   -2673.9553            0    -2626.866    8.3578002 
   82400    380.65501   -2672.6606            0   -2627.2949   -2.4555379 
   82600    404.33752   -2672.2806            0   -2624.0925   0.59782586 
   82800    419.58971    -2674.226            0   -2624.2202  -0.59573004 
   83000    374.73842    -2673.078            0   -2628.4174   0.58206352 
   83200    407.50557   -2673.8021            0   -2625.2364   -2.9577233 
   83400    416.47009   -2673.0202            0   -2623.3862    2.4905591 
   83600    401.66334   -2675.6097            0   -2627.7403  0.076381055 
   83800    398.56523   -2673.7996            0   -2626.2994  -0.58584001 
   84000    426.78092    -2673.655            0   -2622.7922   0.35356677 
   84200    400.92648   -2674.8947            0   -2627.1132   -1.2793177 
   84400    402.59026   -2675.5899            0     -2627.61   0.99979214 
   84600    407.64003   -2671.7656            0    -2623.184   0.63661848 
   84800    411.35003   -2675.3356            0   -2626.3118    1.7941066 
   85000    391.93351    -2675.177            0   -2628.4672  -0.63544385 
   85200    405.94435   -2671.7509            0   -2623.3713   -4.6089265 
   85400    396.64931   -2672.0949            0   -2624.8231  -0.63002173 
   85600    373.58251   -2674.5309            0   -2630.0081   -1.5284973 
   85800     410.0794   -2672.9285            0   -2624.0561 -0.018713851 
   86000    408.75367   -2672.2068            0   -2623.4925   -2.7571941 
   86200    388.69621   -2675.4319            0    -2629.108   -2.5157011 
   86400    397.73658   -2673.5411            0   -2626.1397    1.6679203 
   86600    428.72392   -2673.6751            0   -2622.5807   -3.8594644 
   86800    388.10031    -2674.429            0    -2628.176    1.6127198 
   87000    396.29018   -2674.2967            0   -2627.0677    4.9623182 
   87200    403.37849   -2672.4226            0   -2624.3489   -2.8362249 
   87400    389.04258    -2673.455            0   -2627.0898   -1.4102901 
   87600    395.41522   -2674.4707            0   -2627.3459    1.3519097 
   87800    405.58153   -2672.3994            0    -2624.063    1.1570113 
   88000    406.46909   -2674.4995            0   -2626.0574     1.506835 
   88200    402.16388   -2676.5024            0   -2628.5734    4.4104478 
   88400    395.42114   -2673.1487            0   -2626.0232   -6.6000788 
   88600    406.88889   -2672.0551            0    -2623.563    2.0769256 
   88800    375.19827   -2673.3368            0   -2628.6215    -5.411987 
   89000    402.01089   -2674.3429            0   -2626.4321    3.4927135 
   89200    387.77254   -2671.8213            0   -2625.6074   -2.7724127 
   89400    398.98626   -2674.6061            0   -2627.0558    4.1813796 
   89600    403.18303   -2674.3304            0   -2626.2799     -1.60547 
   89800    388.95316   -2673.6015            0   -2627.2469    5.9234507 
   90000    402.81928   -2673.8437            0   -2625.8365   -9.3443043 
   90200    397.30207   -2672.7758            0   -2625.4261    4.6433499 
   90400    404.27845   -2674.8074            0   -2626.6264   -5.0121522 
   90600    405.91415   -2675.0966            0   -2626.7207    4.6308091 
   90800     409.6902   -2676.1858            0   -2627.3598   -2.3716516 
   91000    400.16051   -2673.8349            0   -2626.1446    9.0709645 
   91200    397.14446   -2673.5483            0   -2626.2174   -4.8481518 
   91400    414.34552   -2675.7714            0   -2626.3906    4.7034108 
   91600    395.82905   -2675.3575            0   -2628.1835   -2.1682566 
   91800    409.72382   -2673.5518            0   -2624.7218    2.4789082 
   92000    405.35603   -2673.8319            0   -2625.5224    0.3312495 
   92200    391.96277   -2673.9908            0   -2627.2775   0.17084892 
   92400     401.3365   -2672.9614            0    -2625.131    -1.602638 
   92600    398.77685   -2674.0687            0   -2626.5433   -1.7104008 
   92800    401.93432   -2674.5706            0    -2626.669   -2.2784521 
   93000    404.62457   -2673.7228            0   -2625.5005    1.0489458 
   93200    408.06012   -2674.4204            0   -2625.7887   -2.4672638 
   93400    399.11966   -2673.8168            0   -2626.2505    -1.977973 
   93600    403.87547   -2674.2236            0   -2626.0906   0.49723927 
   93800    391.25274    -2673.473            0   -2626.8444   -3.5727918 
   94000    403.39755   -2672.9462            0   -2624.8702    3.9243665 
   94200    406.56447    -2674.991            0   -2626.5375   -4.1639892 
   94400    384.63202   -2673.7029            0   -2627.8633    1.2817995 
   94600    399.59577   -2673.2615            0   -2625.6385   -5.0541495 
   94800    415.14912   -2672.9856            0    -2623.509    4.1263559 
   95000     406.6992   -2676.7637            0   -2628.2941   -3.8388171 
   95200    399.17781   -2675.3094            0   -2627.7363    9.4820462 
   95400    406.85278   -2672.8056            0   -2624.3178   -4.5364994 
   95600    416.91515   -2674.0405            0   -2624.3534    6.3369395 
   95800    398.04389   -2677.0082            0   -2629.5702   -1.5692387 
   96000    407.03488    -2675.192            0   -2626.6825      1.00273 
   96200    419.14951   -2674.3537            0   -2624.4004   -3.1662893 
   96400    404.35774    -2675.492            0   -2627.3015    4.9912686 
   96600    392.87247    -2676.535            0   -2629.7133   -2.6050476 
   96800    409.31558   -2673.8591            0   -2625.0777    2.1929062 
   97000    410.70043   -2672.7699            0   -2623.8235   -5.5385367 
   97200    383.88611   -2675.4696            0   -2629.7188    4.9127273 
   97400    391.49617   -2674.9754            0   -2628.3177   -2.6391373 
   97600    417.83762   -2671.4968            0   -2621.6999    2.2641682 
   97800    398.03811   -2675.2166            0   -2627.7793   -2.1695519 
   98000    383.83181     -2675.18            0   -2629.4357    4.1258331 
   98200    406.32794   -2671.9994            0   -2623.5741   -1.8506841 
   98400    415.69046   -2673.1781            0    -2623.637   -1.6857646 
   98600    396.88576    -2676.217            0   -2628.9171    2.8404755 
   98800    404.63338    -2675.792            0   -2627.5686   -3.4053348 
   99000     414.1714   -2673.2154            0   -2623.8554    3.4136636 
   99200    399.33233   -2674.7869            0   -2627.1954   -6.5713274 
   99400    384.54081   -2673.9457            0   -2628.1169    5.4269836 
   99600    402.81217    -2672.344            0   -2624.3377   -7.3215709 
   99800    404.62628   -2674.7661            0   -2626.5436    3.1033617 
  100000    393.26433   -2675.2498            0   -2628.3814   -2.2068941 
  100200    395.49508   -2671.0815            0   -2623.9473     2.211511 
  100400    396.83019   -2672.0693            0   -2624.7759 -0.057404739 
  100600    371.30339   -2671.9483            0   -2627.6972     6.964298 
  100800    408.62121    -2674.459            0   -2625.7604    -1.679108 
  101000    408.22849   -2672.5189            0   -2623.8671   -1.2407189 
  101200    404.71205   -2675.1243            0   -2626.8916  -0.30353141 
  101400     395.4999   -2673.8907            0   -2626.7559   -4.3456511 
  101600    416.26421   -2674.3141            0   -2624.7046  -0.97450131 
  101800     404.1724   -2675.9321            0   -2627.7637    -3.407799 
  102000    404.16602   -2674.4803            0   -2626.3126   0.89393964 
  102200    416.79658   -2673.3027            0   -2623.6298  -0.76787718 
  102400    405.17539   -2674.9793            0   -2626.6914    1.6816337 
  102600    397.54819   -2674.9559            0    -2627.577   -1.7033232 
  102800    409.56482   -2672.1293            0   -2623.3182    4.8362081 
  103000    403.88619   -2674.5904            0   -2626.4562  -0.38848314 
  103200    392.82606   -2674.4099            0   -2627.5937     1.622543 
  103400    405.52583   -2672.7529            0   -2624.4232   0.79344745 
  103600    394.05639   -2671.9583            0   -2624.9955    -1.760033 
  103800    391.28875   -2674.4122            0   -2627.7793   -3.9443043 
  104000    405.73951   -2673.2869            0   -2624.9317  -0.45813939 
  104200    402.44968   -2672.5246            0   -2624.5615   -3.4848201 
  104400    396.88838   -2674.3698            0   -2627.0695    2.8532357 
  104600    403.94393   -2673.4792            0    -2625.338   -3.1688525 
  104800    404.85932   -2673.3087            0   -2625.0585    4.1378383 
  105000    372.07398   -2672.1583            0   -2627.8153   -5.4102807 
  105200    413.17061   -2676.4109            0   -2627.1701    1.5078922 
  105400    396.84938   -2672.1712            0   -2624.8755   -3.5051911 
  105600    406.17249   -2674.1742            0   -2625.7675    1.9401972 
  105800     395.7853   -2674.8189            0     -2627.65  -0.89012717 
  106000    401.82485   -2673.4525            0   -2625.5639  -0.17241038 
  106200    386.84624   -2673.3085            0    -2627.205   -1.5553658 
  106400    400.46814   -2674.5401            0   -2626.8132    2.6429957 
  106600    404.06175   -2672.9509            0   -2624.7956 -0.0086646174 
  106800    408.44193   -2674.8824            0   -2626.2052    4.8092045 
  107000    383.90909   -2673.5949            0   -2627.8415  -0.69899698 
  107200    412.47401    -2674.568            0   -2625.4102    7.2740609 
  107400    399.96733   -2674.6785            0   -2627.0112   -2.2771433 
  107600     389.5331   -2672.8989            0   -2626.4752  -0.93941286 
  107800    406.78723   -2672.5188            0   -2624.0388   -1.9314621 
  108000     385.0838   -2673.6375            0   -2627.7441     2.401144 
  108200    390.16832   -2674.2312            0   -2627.7317   -5.0311063 
  108400     395.9874   -2671.6064            0   -2624.4135    1.8867419 
  108600    383.63152   -2672.4102            0   -2626.6898   -1.7829138 
  108800    398.89067    -2674.023            0   -2626.4841    5.7301989 
  109000    398.43457   -2673.9419            0   -2626.4574   -4.0975677 
  109200    410.28058   -2672.4388            0   -2623.5425    7.6474943 
  109400    411.38041   -2676.4752            0   -2627.4478   -3.7037909 
  109600    388.45832   -2674.9969            0   -2628.7012    9.4774294 
  109800    411.60603    -2673.512            0   -2624.4577   -5.6996389 
  110000    409.62221   -2674.8776            0   -2626.0597    2.0541857 
  110200    380.51849   -2674.2075            0   -2628.8581   -2.8214812 
  110400    412.89819   -2674.7367            0   -2625.5284     8.035087 
  110600    406.03025   -2673.2703            0   -2624.8805   -1.5953516 
  110800    393.56353   -2674.9608            0   -2628.0568  -0.64435177 
  111000    400.60506   -2675.5439            0   -2627.8006  -0.40998387 
  111200    412.94972   -2673.5915            0   -2624.3771  -0.85456162 
  111400    395.42505    -2673.415            0   -2626.2891   -3.9015598 
  111600    376.83264   -2674.1118            0   -2629.2017    0.4768299 
  111800    404.04872   -2673.8199            0   -2625.6662  0.033267732 
  112000    393.43765   -2672.1174            0   -2625.2283   -4.7825367 
  112200    399.75495   -2676.5633            0   -2628.9213    1.5684769 
  112400    401.25679   -2675.9007            0   -2628.0797   -4.4162383 
  112600    418.51145   -2672.8462            0   -2622.9689    3.9150449 
  112800    386.35182   -2673.3613            0   -2627.3167   -1.2182509 
  113000    395.06095   -2675.4897            0   -2628.4072    0.7105508 
  113200    416.00846   -2673.5821            0   -2624.0031   -2.4350313 
  113400    402.66895    -2673.918            0   -2625.9288  -0.55973775 
  113600    384.39623   -2675.2038            0   -2629.3923    3.0224334 
  113800    401.62755   -2673.0737            0   -2625.2086  -0.85889349 
  114000    409.11851   -2674.1904            0   -2625.4325   -4.5530417 
  114200     390.2199   -2674.9155            0     -2628.41   0.24093349 
  114400    408.56784   -2674.8753            0   -2626.1831   0.95225683 
  114600    394.52409   -2672.1504            0   -2625.1319    2.8713661 
  114800    399.30712   -2674.4794            0   -2626.8909   -2.1159888 
  115000    393.77495   -2673.3213            0    -2626.392  -0.58938445 
  115200     402.0533   -2673.1929            0    -2625.277   0.64486164 
  115400    397.09212   -2674.2874            0   -2626.9628  -0.89609203 
  115600    404.92369    -2674.822            0   -2626.5641  -0.97846669 
  115800     404.1263   -2673.6228            0   -2625.4599  -0.32135192 
  116000    395.23745   -2672.5539            0   -2625.4504  -0.83562072 
  116200    391.89138   -2672.6984            0   -2625.9937    1.3192435 
  116400    402.18846   -2673.2975            0   -2625.3656   0.60691739 
  116600    397.37813   -2673.5863            0   -2626.2277   -0.6629741 
  116800    395.10116   -2674.0492            0   -2626.9619   0.16026145 
  117000    404.98592   -2673.2306            0   -2624.9652  -0.53746314 
  117200    422.20677   -2674.3914            0   -2624.0737   -4.9440834 
  117400    391.26129   -2674.3143            0   -2627.6846    1.1358338 
  117600     404.6733   -2675.0209            0   -2626.7928 -0.059062103 
  117800     399.5929   -2670.8588            0   -2623.2362   -3.4722335 
  118000    403.76045    -2673.311            0   -2625.1917  -0.92347769 
  118200    392.73046   -2675.9873            0   -2629.1826   0.15090509 
  118400    396.28256   -2671.6117            0   -2624.3836  -0.92347072 
  118600    417.19699   -2672.3953            0   -2622.6746   -1.3322251 
  118800    394.21686   -2675.5079            0   -2628.5259  -0.33767508 
  119000    391.33969   -2674.3936            0   -2627.7545   -2.0513041 
  119200    399.12683   -2669.7498            0   -2622.1827   -1.2835851 
  119400    391.80094   -2672.1916            0   -2625.4976    2.0960439 
  119600     386.0433   -2675.6758            0    -2629.668   0.24064154 
  119800    411.28602   -2674.2647            0   -2625.2485    1.3298488 
  120000     402.6978   -2672.6037            0    -2624.611   -4.5230852 
  120200    388.31348   -2674.4242            0   -2628.1459   0.93502215 
  120400    380.87634   -2672.3533            0   -2626.9612   -4.4842052 
  120600     414.4903    -2673.163            0    -2623.765    1.1879891 
  120800     389.9506   -2674.5081            0   -2628.0346     2.067914 
  121000    408.47178   -2675.5509            0   -2626.8701   0.29868764 
  121200    410.47395   -2673.4074            0    -2624.488  0.037185851 
  121400    382.71757   -2673.0301            0   -2627.4186    1.4266549 
  121600    397.18442   -2674.9443            0   -2627.6087    2.2692693 
  121800    391.92798   -2671.6852            0   -2624.9761   -2.7668565 
  122000    412.65414    -2674.789            0   -2625.6098   -3.3462948 
  122200    377.52414   -2672.9279            0   -2627.9354    3.9470297 
  122400    388.93599   -2672.4906            0    -2626.138   -5.9300446 
  122600    400.42689   -2671.9188            0   -2624.1968     2.384944 
  122800    392.13702   -2674.4438            0   -2627.7098   -5.0496112 
  123000    393.12834   -2675.0174            0   -2628.1652    1.9530643 
  123200    407.50685   -2673.3973            0   -2624.8315   -6.6218125 
  123400    402.71554   -2673.3261            0   -2625.3313   0.23266482 
  123600    395.82178   -2675.7523            0   -2628.5791   -3.4810609 
  123800    402.32393   -2674.9014            0   -2626.9533   -1.8826079 
  124000    428.79112   -2675.5397            0   -2624.4372   -1.4020473 
  124200    404.47401   -2675.2025            0   -2626.9981    3.3865108 
  124400    405.16931   -2676.9814            0   -2628.6942   -3.5640663 
  124600    404.65467   -2673.7752            0   -2625.5493  -0.41466441 
  124800    397.75845   -2672.9855            0   -2625.5815  -0.30951488 
  125000    395.14486   -2675.2741            0   -2628.1816   0.38901386 
  125200    396.01623   -2675.4938            0   -2628.2974  -0.31527274 
  125400    400.53086   -2673.3977            0   -2625.6633 -0.079473425 
  125600    406.28513   -2674.7263            0   -2626.3061    -3.069113 
  125800    388.16006   -2674.4399            0   -2628.1798    2.0370155 
  126000    401.79219   -2675.6456            0   -2627.7608   -2.1551168 
  126200    409.65735   -2673.3629            0   -2624.5408  -0.15589506 
  126400    393.24708   -2674.6988            0   -2627.8325   -3.3900901 
  126600    396.50182   -2675.7937            0   -2628.5394    3.9194186 
  126800    413.22195   -2674.5343            0   -2625.2874   -3.0076217 
  127000     388.1088   -2672.9804            0   -2626.7264    1.6026765 
  127200    392.27996   -2675.8691            0    -2629.118   -3.8789586 
  127400     408.3599   -2675.9276            0   -2627.2602    1.9767097 
  127600    403.92819   -2673.4323            0    -2625.293   -1.8908753 
  127800    384.89987   -2672.5343            0   -2626.6628   -4.3000005 
  128000    394.91553   -2675.0577            0   -2627.9925  -0.27669581 
  128200    395.31798   -2674.3232            0   -2627.2101  -0.95986149 
  128400    405.37472   -2674.2105            0   -2625.8988   -1.7599686 
  128600    381.94845   -2673.5049            0   -2627.9851  -0.53998892 
  128800    393.03223   -2674.2117            0    -2627.371     -3.29049 
  129000    402.05241   -2673.8212            0   -2625.9054  -0.41148846 
  129200    399.39389   -2674.3859            0    -2626.787    1.3548818 
  129400    397.75916   -2676.4729            0   -2629.0688   0.64738351 
  129600    395.69836   -2673.5911            0   -2626.4326  -0.73635359 
  129800    408.86744   -2674.7618            0   -2626.0338    2.4236162 
  130000    391.29646   -2675.4665            0   -2628.8326    0.9736132 
  130200    403.08912   -2674.6275            0   -2626.5882  -0.54374839 
  130400     408.8337   -2674.6564            0   -2625.9325   0.76782291 
  130600    406.22774   -2677.1009            0   -2628.6875  0.080570098 
  130800    403.26309   -2674.7914            0   -2626.7314   -2.0858124 
  131000    420.04898   -2675.9311            0   -2625.8706  -0.71328216 
  131200    394.28539   -2675.8462            0   -2628.8561   -2.3124001 
  131400    396.20702   -2675.0485            0   -2627.8294    2.4646258 
  131600    418.92498   -2675.7214            0   -2625.7948    -4.631362 
  131800    393.06971   -2674.5123            0   -2627.6671  0.056039186 
  132000    404.65296   -2675.9665            0   -2627.7408    2.2910417 
  132200    412.18074   -2675.3424            0   -2626.2196  -0.76793625 
  132400    410.12602   -2675.9651            0   -2627.0872  -0.52067631 
  132600    399.28767    -2676.147            0   -2628.5608   -2.5602682 
  132800    404.26471   -2674.2218            0   -2626.0424     1.333257 
  133000     407.5755   -2675.1654            0   -2626.5914   -4.2282281 
  133200    385.88763   -2674.8714            0   -2628.8821   0.60106207 
  133400    410.65276   -2675.0424            0   -2626.1017   -4.2582359 
  133600    393.79795   -2674.2389            0   -2627.3069    3.0272897 
  133800    391.85373    -2675.376            0   -2628.6757   -4.9626639 
  134000    406.86584   -2675.2085            0   -2626.7191    4.3197103 
  134200    393.66417   -2672.8479            0   -2625.9318    -2.271108 
  134400    392.15802   -2675.6187            0   -2628.8822    2.2638335 
  134600    408.59214   -2677.2711            0    -2628.576   -3.1744237 
  134800     403.2326   -2673.4317            0   -2625.3753   0.52190212 
  135000    399.92807   -2674.4265            0   -2626.7639 -0.080430546 
  135200    388.38953   -2675.0329            0   -2628.7455   0.47822107 
  135400    397.45823   -2674.1189            0   -2626.7507  0.036673458 
  135600    380.00505   -2672.6651            0   -2627.3769    2.7818926 
  135800     396.8387   -2674.4151            0   -2627.1207   -1.3216783 
  136000      414.339   -2675.0695            0   -2625.6895   -2.6340778 
  136200    380.57606   -2674.3173            0   -2628.9611    4.1436649 
  136400    398.52567   -2675.1011            0   -2627.6056   -2.1009563 
  136600    399.83081   -2673.2501            0   -2625.5992   0.70674781 
  136800    395.05504   -2674.5561            0   -2627.4743   -2.6041597 
  137000    419.88791   -2676.6085            0   -2626.5671    5.8077053 
  137200    395.51068   -2674.6745            0   -2627.5384   -3.0462118 
  137400    398.13783   -2674.9981            0   -2627.5489    3.1495738 
  137600    400.35354   -2673.1649            0   -2625.4516   -2.1310406 
  137800    401.82069   -2675.3795            0   -2627.4914   0.10892754 
  138000    387.01061   -2675.3371            0    -2629.214  0.090410364 
  138200    405.05273   -2672.9506            0   -2624.6773    4.1099186 
  138400    414.66009   -2674.9976            0   -2625.5793   -5.0612922 
  138600     396.0075   -2677.0981            0   -2629.9028  -0.51761994 
  138800     405.2214   -2674.9632            0   -2626.6698   -2.5565298 
  139000    405.82391   -2672.8568            0   -2624.4916    2.0415752 
  139200    394.50923   -2675.8616            0   -2628.8448  -0.50742074 
  139400    400.26535    -2675.675            0   -2627.9722    1.3511529 
  139600    403.96215   -2673.2004            0    -2625.057     -1.25214 
  139800    404.47874     -2674.18            0   -2625.9751   -3.2412471 
  140000    382.39288   -2674.0992            0   -2628.5265    1.3257699 
  140200    389.58914    -2673.701            0   -2627.2706   0.85534484 
  140400    399.31783   -2673.2795            0   -2625.6896   0.85955053 
  140600    388.82939   -2675.0661            0   -2628.7263   -2.9319612 
  140800    408.77112   -2674.6054            0    -2625.889    1.3555442 
  141000    405.99173   -2674.1873            0   -2625.8021   -4.2131641 
  141200    404.04671   -2676.7609            0   -2628.6075    5.4476685 
  141400    390.81337   -2674.4805            0   -2627.9042   -1.4147099 
  141600    415.99084   -2674.0099            0    -2624.433    1.4548747 
  141800    403.10971   -2675.4326            0   -2627.3908   -3.4034902 
  142000    393.92336    -2674.305            0   -2627.3581    2.0091396 
  142200    409.66043   -2675.0078            0   -2626.1854   -3.0868267 
  142400    397.95041    -2673.348            0   -2625.9212   -1.1116087 
  142600    396.57708   -2675.1231            0   -2627.8599   0.24434078 
  142800    413.39993   -2675.1696            0   -2625.9015   -4.1847895 
  143000    413.25874   -2674.3798            0   -2625.1285   -1.8026457 
  143200    397.13214   -2675.4362            0   -2628.1069  -0.68129848 
  143400    395.50631   -2673.3298            0   -2626.1942   -5.8711243 
  143600    410.28926   -2672.4851            0   -2623.5877   0.81184254 
  143800    396.94042   -2676.5112            0   -2629.2047  -0.98496223 
  144000    417.19701   -2676.3855            0   -2626.6649  -0.48609478 
  144200    401.85695   -2671.6335            0   -2623.7411   -2.8720841 
  144400    399.70455   -2675.5412            0   -2627.9052   0.30237726 
  144600    398.38754   -2675.3399            0   -2627.8609   -2.6947737 
  144800    423.02721   -2675.0922            0   -2624.6768  -0.27648567 
  145000    384.98179   -2673.2299            0   -2627.3486   -3.7915543 
  145200    384.74739    -2673.706            0   -2627.8526    1.8356692 
  145400    393.45437   -2672.3829            0   -2625.4918   -4.4092411 
  145600    395.82607   -2674.0035            0   -2626.8298   0.24581206 
  145800    400.78158   -2675.3273            0    -2627.563   -1.5150625 
  146000    397.11578    -2672.884            0   -2625.5566  -0.45884588 
  146200    398.17949   -2673.5791            0   -2626.1249   -2.8657869 
  146400    401.44107   -2674.1697            0   -2626.3269   0.13027661 
  146600    398.56927   -2674.5466            0    -2627.046    -1.052333 
  146800    415.36807   -2675.2319            0   -2625.7292  -0.28704709 
  147000    403.33412   -2674.6528            0   -2626.5843    -3.528447 
  147200    399.97329   -2675.1445            0   -2627.4765     1.433662 
  147400    398.27533   -2673.4088            0   -2625.9432  -0.50291109 
  147600    386.99482   -2672.9245            0   -2626.8033   -3.7059868 
  147800    386.96191   -2673.2853            0    -2627.168    7.5250861 
  148000    391.51963   -2672.1776            0   -2625.5172   -2.8773523 
  148200    402.52216    -2673.676            0   -2625.7043    1.4222843 
  148400    391.40049   -2675.5612            0   -2628.9149   -5.4185814 
  148600    406.11734   -2673.8562            0    -2625.456   0.15929467 
  148800    406.37727   -2674.8698            0   -2626.4387  -0.43176065 
  149000     394.3224   -2676.0736            0   -2629.0791 -0.070491902 
  149200    407.72236    -2675.108            0   -2626.5166   0.80749718 
  149400    393.87745   -2673.9903            0   -2627.0489   0.57472593 
  149600    406.89887   -2674.5063            0   -2626.0129    6.1175605 
  149800    392.41649   -2675.0778            0   -2628.3105    -3.081873 
  150000    413.20221   -2675.6738            0   -2626.4293   0.28264233 
  150200    397.36673    -2674.128            0   -2626.7706   -5.6461704 
  150400    391.98651   -2674.8968            0   -2628.1807     5.944072 
  150600    394.10738    -2674.533            0   -2627.5641   -7.2831395 
  150800    410.99095   -2673.9591            0   -2624.9781    4.6090225 
  151000    387.13865    -2675.464            0   -2629.3257   -5.1843813 
  151200    400.42255   -2674.9914            0   -2627.2699     5.476493 
  151400     418.2442   -2674.4659            0   -2624.6205   -3.7155919 
  151600    394.10721   -2674.9076            0   -2627.9388     2.120671 
  151800    389.42791   -2675.6657            0   -2629.2545  -0.93135914 
  152000     410.4731   -2674.1687            0   -2625.2494    1.0793594 
  152200    409.24341    -2672.957            0   -2624.1842    0.5598784 
  152400    395.76797   -2676.0263            0   -2628.8595   -1.4318252 
  152600     386.8942   -2676.2071            0   -2630.0979    2.2844144 
  152800    406.52833   -2671.6677            0   -2623.2185   -2.4235023 
  153000    397.92893   -2673.4776            0   -2626.0533    2.4594441 
  153200    392.17443   -2677.7633            0   -2631.0248    -4.184779 
  153400    401.98087   -2673.9362            0   -2626.0289    2.5939524 
  153600    405.22513   -2672.5384            0   -2624.2446   -1.1824189 
  153800    392.10461   -2676.4089            0   -2629.6787    7.1546195 
  154000    387.26325   -2675.8953            0    -2629.742 -0.029180023 
  154200    423.38154   -2674.2656            0   -2623.8079      2.87044 
  154400    413.82742   -2676.4016            0   -2627.0826   -3.2291175 
  154600    379.48756   -2676.5508            0   -2631.3243     2.483311 
  154800     397.7753   -2672.6671            0   -2625.2611   -1.7148843 
  155000    402.00476   -2672.6135            0   -2624.7034   -1.1548045 
  155200    391.06754   -2675.2798            0   -2628.6732     4.776917 
  155400    396.31835   -2675.9501            0   -2628.7177  -0.26425917 
  155600    414.65116   -2674.5059            0   -2625.0887  -0.40956766 
  155800    411.25422   -2674.7188            0   -2625.7064   -2.3240506 
  156000    406.06749    -2676.473            0   -2628.0788   0.99251226 
  156200    408.90502   -2675.7536            0   -2627.0212   -5.3732863 
  156400    407.07104   -2671.5812            0   -2623.0674    1.3032885 
  156600    395.06304   -2674.2908            0    -2627.208     -3.15707 
  156800    396.58974   -2676.3605            0   -2629.0958    4.9723208 
  157000    408.04109   -2672.4394            0   -2623.8099   -3.2935857 
  157200    409.27576   -2674.1634            0   -2625.3868    3.0750655 
  157400    396.58477   -2676.6608            0   -2629.3967   0.77461948 
  157600    398.10053   -2673.4927            0   -2626.0479    3.8086038 
  157800    416.75856   -2675.1257            0   -2625.4573 -0.064439961 
  158000    395.58023   -2675.9671            0   -2628.8227    1.7724925 
  158200    406.29729   -2675.2258            0   -2626.8042    3.7539616 
  158400    418.67307   -2674.7692            0   -2624.8727   -3.0667844 
  158600    396.12661   -2676.2524            0   -2629.0429    3.1922517 
  158800     390.6642   -2674.3523            0   -2627.7937    1.7307303 
  159000    402.24856   -2672.4976            0   -2624.5585   -2.1622206 
  159200    388.10789    -2673.591            0   -2627.3372    1.6339581 
  159400    399.59034   -2675.9884            0   -2628.3661   -1.7432845 
  159600    410.14268    -2674.768            0   -2625.8881   -3.3822601 
  159800    402.36812   -2672.9283            0   -2624.9749   0.96386218 
  160000    393.22323   -2673.8653            0   -2627.0018   0.34448849 
  160200     400.6654   -2674.9113            0   -2627.1609    2.8483144 
  160400     413.6773   -2675.0296            0   -2625.7285   -2.3890388 
  160600    382.92097   -2671.8338            0   -2626.1981 -0.028125528 
  160800    397.75977   -2673.2478            0   -2625.8436   -4.5624208 
  161000    411.84659   -2674.3771            0   -2625.2941     2.793578 
  161200    401.34905   -2673.8354            0   -2626.0035   -1.2749913 
  161400    399.98257   -2672.9225            0   -2625.2535    4.8320703 
  161600    400.35975   -2673.9424            0   -2626.2284   0.81857225 
  161800    402.12881   -2674.2096            0   -2626.2848    1.7408043 
  162000    415.72327   -2673.3924            0   -2623.8474   -1.2036344 
  162200    402.77744   -2673.1682            0   -2625.1661   0.91492025 
  162400    410.91561   -2676.3173            0   -2627.3453   -3.3473165 
  162600    400.02033   -2673.0127            0   -2625.3391  -0.88140805 
  162800    399.17647   -2672.0913            0   -2624.5184   -1.7666686 
  163000    390.99489   -2672.5673            0   -2625.9694    4.7336919 
  163200    389.58207   -2673.0169            0   -2626.5874   -1.1876543 
  163400    403.67634   -2673.4216            0   -2625.3123   -2.3116753 
  163600    405.08837   -2674.9047            0   -2626.6271   -3.5239186 
  163800    393.11409   -2673.6135            0    -2626.763   0.26371883 
  164000    391.54986   -2671.6739            0   -2625.0098   -2.2279224 
  164200    416.79781   -2674.8993            0   -2625.2263   0.87517271 
  164400    390.85997   -2674.5233            0   -2627.9414    1.6448186 
  164600    406.39247   -2675.2187            0   -2626.7857  -0.65825389 
  164800    395.71588   -2671.7313            0   -2624.5707    3.0617277 
  165000    405.97505   -2676.2918            0   -2627.9085    3.4973747 
  165200    395.18917   -2675.4588            0    -2628.361  -0.72729072 
  165400    419.04127   -2673.6998            0   -2623.7593     3.239269 
  165600    392.86794    -2674.553            0   -2627.7318   -3.8252332 
  165800    405.22205   -2676.5566            0   -2628.2631    1.8586529 
  166000     409.4874   -2673.8155            0   -2625.0137   -1.8107234 
  166200    415.00102   -2674.3062            0   -2624.8473  -0.78452636 
  166400    389.01241   -2674.6538            0   -2628.2921    1.6496036 
  166600    409.84864   -2674.5378            0   -2625.6929     1.359337 
  166800    395.82763   -2673.1134            0   -2625.9395   -1.7221341 
  167000    391.75774   -2673.9959            0   -2627.3071    4.5039302 
  167200    405.50128   -2675.0679            0   -2626.7411   -3.9395166 
  167400    421.40289   -2674.2444            0   -2624.0225    4.4096935 
  167600    394.36381   -2674.5788            0   -2627.5794   -6.6221098 
  167800    398.05557   -2675.3848            0   -2627.9454    3.0510979 
  168000    403.09709   -2674.2304            0   -2626.1902    -6.859147 
  168200    405.62497   -2673.7793            0   -2625.4378      4.91581 
  168400    391.72759   -2675.0854            0   -2628.4001   -7.4361894 
  168600    395.48609   -2674.0384            0   -2626.9053    5.2976761 
  168800    401.83743   -2671.6343            0   -2623.7442   -6.2527076 
  169000    405.93411   -2674.2716            0   -2625.8933    4.3327793 
  169200    398.45612   -2677.1288            0   -2629.6416 -0.058659855 
  169400    408.62488   -2675.1194            0   -2626.4203    1.0680159 
  169600    408.26945   -2672.8453            0   -2624.1886   -1.1545483 
  169800    385.65751   -2672.9532            0   -2626.9914    2.8034001 
  170000    390.21896   -2675.0063            0   -2628.5008  -0.36889731 
  170200    397.88259    -2673.839            0   -2626.4202 -0.053156024 
  170400    418.16873   -2674.6287            0   -2624.7923   -1.0936505 
  170600     387.2971   -2675.5128            0   -2629.3556   0.21298769 
  170800    401.50706   -2675.2786            0   -2627.4279    2.0555742 
  171000    389.01351   -2672.6918            0     -2626.33   -4.2393664 
  171200    393.76667   -2673.4656            0   -2626.5374     2.290118 
  171400     400.5885   -2675.3321            0   -2627.5908   -8.9690819 
  171600    408.51883   -2674.1668            0   -2625.4804    4.7814479 
  171800    390.10231   -2673.3233            0   -2626.8318   -5.8900945 
  172000     402.2679    -2674.554            0   -2626.6126    5.1584458 
  172200    381.26187   -2672.1385            0   -2626.7005   -6.2902664 
  172400     410.9111   -2675.6539            0   -2626.6824    3.7309388 
  172600    398.51746   -2674.4538            0   -2626.9594     -5.95279 
  172800    403.29928   -2673.9215            0   -2625.8572    6.0314836 
  173000    396.66024   -2674.8571            0    -2627.584   -5.1394441 
  173200    399.98785   -2673.9294            0   -2626.2597      2.92247 
  173400     403.1172   -2673.6143            0   -2625.5717   -8.5102975 
  173600    405.98696   -2675.4994            0   -2627.1147    5.4168744 
  173800    385.77353   -2674.2014            0   -2628.2258   -7.7077678 
  174000    405.43304   -2672.8202            0   -2624.5016    7.2771028 
  174200    389.57749   -2672.7577            0   -2626.3286  0.095390038 
  174400    384.05343   -2673.1621            0   -2627.3914    2.8428978 
  174600     394.0136   -2673.1757            0    -2626.218    1.8445152 
  174800    399.89544   -2673.5058            0   -2625.8471 -0.0044781098 
  175000    385.33909   -2673.1423            0   -2627.2184    1.6614237 
  175200    410.88545   -2674.9053            0   -2625.9369    1.2470426 
  175400    397.34147    -2672.992            0   -2625.6377   -4.8305848 
  175600     388.5921   -2674.0695            0   -2627.7579    3.4906374 
  175800     395.4701   -2674.4444            0   -2627.3131   -3.5382487 
  176000    403.29601   -2672.7451            0   -2624.6812     3.942947 
  176200    400.62951   -2673.4867            0   -2625.7405   -3.9442418 
  176400    391.46907   -2675.4146            0   -2628.7602    6.3945595 
  176600    385.45592   -2672.1996            0   -2626.2618   -4.7961476 
  176800    416.38213   -2674.3788            0   -2624.7553    4.6019836 
  177000    401.05417   -2676.1431            0   -2628.3463   -3.0612115 
  177200    385.32683   -2672.6373            0   -2626.7148    5.0689749 
  177400    408.82665   -2673.9846            0   -2625.2615   -6.1412126 
  177600    402.30885   -2675.2669            0   -2627.3206   -2.5273129 
  177800    406.34831   -2676.1325            0   -2627.7047  -0.57152792 
  178000    400.73859   -2672.2172            0    -2624.458    4.2619258 
  178200    403.62564   -2675.3612            0    -2627.258   -2.4876761 
  178400    398.79363   -2675.5643            0   -2628.0369     6.199457 
  178600    404.79646    -2673.296            0   -2625.0532   -4.9309628 
  178800    398.58683   -2672.3587            0   -2624.8559    1.6600307 
  179000    380.64513   -2674.4376            0   -2629.0732    -2.711477 
  179200    405.50687   -2673.9972            0   -2625.6697   0.14596906 
  179400    417.81446   -2674.0186            0   -2624.2244   -4.4292339 
  179600    376.78638    -2673.834            0   -2628.9294    3.5468315 
  179800    409.74943   -2674.9741            0    -2626.141   -1.9097884 
  180000    411.89029   -2673.2639            0   -2624.1757   -1.1214175 
  180200    386.26387    -2674.569            0   -2628.5349    1.4803548 
  180400    416.12252   -2676.0417            0   -2626.4491  -0.24895744 
  180600     406.4024    -2672.358            0   -2623.9239  -0.37583251 
  180800    389.41501   -2674.2837            0   -2627.8741    -2.021806 
  181000     386.6901   -2673.4011            0   -2627.3162    2.8358724 
  181200    409.78175   -2673.2055            0   -2624.3686    4.3962495 
  181400    402.45612   -2674.4068            0   -2626.4429   -1.6984921 
  181600    385.40518   -2674.1933            0   -2628.2615   0.58072782 
  181800    395.03142   -2673.2432            0   -2626.1642   0.37097093 
  182000     409.0541   -2674.8156            0   -2626.0654   0.13460656 
  182200    401.56193   -2675.9969            0   -2628.1396  0.033771035 
  182400    391.86133   -2674.2354            0   -2627.5342   -1.9554698 
  182600    415.97986    -2673.342            0   -2623.7665   -5.4131668 
  182800    392.32716   -2674.3321            0   -2627.5754  -0.36949327 
  183000    391.45893   -2675.4226            0   -2628.7694   -2.3778956 
  183200    408.64052   -2671.6351            0   -2622.9342   0.78774244 
  183400    398.24826   -2674.6232            0   -2627.1608   -1.9059133 
  183600    392.21602   -2676.2369            0   -2629.4935  -0.24185658 
  183800    398.09757    -2673.114            0   -2625.6696   0.72500301 
  184000    401.07903   -2672.2755            0   -2624.4758  -0.45976246 
  184200     394.6001   -2674.8612            0   -2627.8336   0.84174744 
  184400    392.28128   -2673.9996            0   -2627.2484   0.11769439 
  184600    405.64804   -2673.7776            0   -2625.4333   -2.1258622 
  184800    390.90775   -2672.8244            0   -2626.2369    1.0615095 
  185000    408.70069   -2675.7983            0   -2627.0902   -1.2021972 
  185200    404.24103   -2675.1907            0   -2627.0141    1.6979033 
  185400    395.89234   -2672.8584            0   -2625.6768   -3.1029918 
  185600     406.7559   -2675.8087            0   -2627.3324  -0.11205774 
  185800    397.06043   -2675.3593            0   -2628.0385    4.1377039 
  186000    393.74314    -2673.143            0   -2626.2175     -1.08008 
  186200    403.49656    -2672.591            0   -2624.5032   0.43712426 
  186400    389.48997   -2674.4267            0   -2628.0082  -0.40524611 
  186600      388.337   -2673.5601            0    -2627.279    1.3243486 
  186800    403.62199   -2672.4128            0     -2624.31    5.1501235 
  187000    407.61375   -2673.7145            0   -2625.1359   -5.2580674 
  187200     389.1207   -2674.4968            0   -2628.1223    4.3251844 
  187400    399.78814   -2674.1064            0   -2626.4605  -0.96083541 
  187600    407.95055   -2672.3795            0   -2623.7609    1.7160412 
  187800    404.00418   -2674.7927            0   -2626.6444   -3.5046148 
  188000    407.96144     -2675.64            0   -2627.0201    2.6151282 
  188200    396.28292   -2672.7933            0   -2625.5651   0.41682691 
  188400     411.4965   -2674.4838            0   -2625.4426    3.3298711 
  188600    384.52524   -2672.7627            0   -2626.9358   -3.1945117 
  188800    410.69319   -2673.8984            0   -2624.9529    2.3879978 
  189000    400.82001   -2674.9276            0   -2627.1587   -5.2594889 
  189200    392.15301   -2673.7046            0   -2626.9687   0.23047642 
  189400    402.56439   -2672.8656            0   -2624.8889   -2.7326732 
  189600    403.83345   -2673.3799            0   -2625.2519   -1.8211228 
  189800    400.26982   -2675.4104            0   -2627.7071   -1.4557877 
  190000    417.31376   -2674.0363            0   -2624.3017     1.721693 
  190200    397.51996   -2672.8083            0   -2625.4328   -5.2653166 
  190400    393.62654   -2674.7645            0   -2627.8529   -2.3538806 
  190600    398.45127   -2673.3639            0   -2625.8773   -2.2633286 
  190800    414.43994   -2673.7181            0   -2624.3261     3.104614 
  191000    405.33024   -2675.3566            0   -2627.0502   -5.7960043 
  191200    394.65131   -2673.0423            0   -2626.0086    4.8415285 
  191400    397.32768   -2671.7256            0   -2624.3729   -6.9258993 
  191600    399.53874   -2673.5005            0   -2625.8844   0.91894426 
  191800    398.77845   -2674.2483            0   -2626.7227   -8.0335702 
  192000    403.10918   -2672.8203            0   -2624.7786    6.5946123 
  192200    400.64362    -2673.694            0   -2625.9462   -8.5126929 
  192400    393.72916   -2673.9864            0   -2627.0626    11.929539 
  192600    409.51658   -2674.1266            0   -2625.3213   -10.294677 
  192800    415.41591   -2674.4307            0   -2624.9224    8.3755013 
  193000    383.60439   -2674.0078            0   -2628.2906    -9.863355 
  193200    409.88518   -2674.4186            0   -2625.5693    9.4893702 
  193400    401.44856   -2675.0055            0   -2627.1618   -8.0296849 
  193600    396.37355   -2673.5273            0   -2626.2883    5.3690037 
  193800    401.51494   -2673.2868            0   -2625.4351   -8.4620236 
  194000    398.96484   -2672.8339            0   -2625.2861    8.1983026 
  194200    391.06042   -2673.9046            0   -2627.2989    -1.645472 
  194400    400.07329   -2674.6172            0   -2626.9373    7.2693167 
  194600    395.55551   -2672.2818            0   -2625.1404   -5.7818195 
  194800    411.11588   -2673.4153            0   -2624.4194    1.8116104 
  195000    402.56658   -2676.8269            0   -2628.8499   -4.7115694 
  195200    394.78475   -2673.5492            0   -2626.4996    6.2236113 
  195400    415.29621   -2673.6462            0   -2624.1521   -7.1845575 
  195600    410.59658    -2675.804            0     -2626.87    6.7316236 
  195800     394.5229   -2676.0007            0   -2628.9823     -1.98386 
  196000     415.6202   -2674.4161            0   -2624.8834    6.0119768 
  196200    409.42669   -2674.1571            0   -2625.3625   -4.7189163 
  196400    398.86201   -2674.7548            0   -2627.2193    1.3683995 
  196600    400.02621    -2674.822            0   -2627.1477   -1.9581554 
  196800    413.53278   -2673.7347            0   -2624.4508   -2.9325879 
  197000    389.26541    -2673.063            0   -2626.6712   0.44877719 
  197200    392.57259    -2675.516            0     -2628.73     2.094225 
  197400    404.40741    -2674.601            0   -2626.4046   0.62172718 
  197600    409.56167   -2673.4787            0    -2624.668    1.8467542 
  197800    392.09544    -2675.328            0   -2628.5989    3.6413466 
  198000    402.47892    -2675.825            0   -2627.8585   -1.6738972 
  198200    398.90747   -2671.3833            0   -2623.8424    1.2974451 
  198400    403.47207   -2673.8347            0   -2625.7498    0.8926308 
  198600     394.1825   -2676.1802            0   -2629.2024    2.2438834 
  198800    389.01973   -2672.8069            0   -2626.4444   0.69494204 
  199000    417.40113   -2673.6306            0   -2623.8856    2.6944712 
  199200    402.36059   -2675.8887            0   -2627.9362   -5.2999949 
  199400    396.16759   -2674.0576            0   -2626.8432    3.3407792 
  199600     400.9889   -2671.4108            0   -2623.6218  -0.74228838 
  199800    399.17556   -2675.3738            0   -2627.8009   0.31369511 
  200000    379.12512   -2673.8956            0   -2628.7123   -1.3368042 
  200200    421.58987    -2673.727            0   -2623.4828   0.60948947 
  200400    408.39263   -2676.0529            0   -2627.3816  -0.56198907 
  200600    380.89385   -2675.1137            0   -2629.7196    7.1927269 
  200800    414.77003   -2673.0859            0   -2623.6545   -2.7157268 
  201000    415.92193    -2674.599            0   -2625.0303    9.4940592 
  201200    382.09678   -2677.0498            0   -2631.5123    -6.477887 
  201400    395.45598   -2672.5518            0   -2625.4222    7.0857404 
  201600     406.7581   -2672.0374            0   -2623.5608   -8.3474459 
  201800    399.82316    -2677.026            0   -2629.3759    5.8017705 
  202000    393.50295   -2676.0295            0   -2629.1327   -2.4420738 
  202200     413.9498   -2671.1069            0   -2621.7733    1.3024486 
  202400    401.89278   -2674.9865            0   -2627.0897   -7.6552807 
  202600    380.03509   -2675.4065            0   -2630.1147    4.0680338 
  202800    420.50715   -2673.3887            0   -2623.2735   -7.1444553 
  203000    405.75946   -2673.3013            0   -2624.9437    1.9038417 
  203200    383.86409   -2677.9664            0   -2632.2183  -0.50956675 
  203400    388.67199    -2671.939            0   -2625.6179    4.0102037 
  203600    406.30449   -2672.3038            0   -2623.8813   -4.3267971 
  203800    389.28026    -2676.185            0   -2629.7914    1.4687392 
  204000    402.67616   -2674.6403            0   -2626.6502   -2.7038305 
  204200    408.32775   -2673.0559            0   -2624.3923   0.52773359 
  204400    389.28027   -2675.8118            0   -2629.4182   -4.4180329 
  204600    409.43437   -2676.2476            0   -2627.4521    1.3582248 
  204800    392.87847   -2671.0383            0   -2624.2159   -3.1567271 
  205000    401.27475   -2674.8042            0   -2626.9812    2.6505089 
  205200    377.09583   -2675.3007            0   -2630.3592     2.195779 
  205400    420.96723   -2674.4414            0   -2624.2715    -1.616143 
  205600    415.43496   -2673.1686            0   -2623.6579   0.96667462 
  205800      372.203   -2675.7342            0   -2631.3759    2.1473444 
  206000    388.83146   -2673.5108            0   -2627.1707    1.9817431 
  206200    422.96446   -2673.4676            0   -2623.0596    -1.776595 
  206400    390.25218   -2675.4562            0   -2628.9468   -3.2818953 
  206600    391.91653   -2675.3166            0   -2628.6088   0.43644759 
  206800    418.40772   -2674.5712            0   -2624.7062    -1.055257 
  207000    395.71281   -2673.9238            0   -2626.7636 -0.077267409 
  207200    386.99256   -2675.0253            0   -2628.9044     4.919108 
  207400    408.10679   -2674.5862            0   -2625.9489   -2.7861661 
  207600    408.19683   -2674.6934            0   -2626.0454    3.6223599 
  207800    395.22888   -2675.6416            0   -2628.5391   -2.3802066 
  208000    411.90259   -2675.6812            0   -2626.5915    4.8225694 
  208200    387.81874   -2673.0973            0   -2626.8779   -3.7152116 
  208400     405.9546   -2674.3776            0   -2625.9968  -0.65675485 
  208600     388.3674     -2673.57            0   -2627.2852    -2.775992 
[...]
  450000    416.45185   -2677.6083            0   -2627.9765   0.92490356 
  450200    377.77423   -2674.3659            0   -2629.3436   -6.1258124 
  450400    414.82187   -2675.2948            0   -2625.8572    3.0084112 
  450600    397.55593   -2675.1395            0   -2627.7597    -2.873614 
  450800    404.30661     -2676.15            0   -2627.9656    9.0438861 
  451000    394.12821   -2675.0935            0   -2628.1222   -6.6323839 
  451200    406.52833   -2674.8078            0   -2626.3587    5.5938926 
  451400      391.342   -2676.6879            0   -2630.0486   -8.6210282 
  451600    408.36452    -2676.068            0      -2627.4    6.9839276 
  451800    403.67672   -2673.8861            0   -2625.7768   -6.9251946 
  452000    401.79202   -2675.5611            0   -2627.6764     7.149146 
  452200    383.29684   -2676.2857            0   -2630.6052   -8.4194955 
  452400    420.44711   -2674.9978            0   -2624.8898    7.0946817 
  452600    411.99834   -2677.1269            0   -2628.0258   -10.334562 
  452800    403.51009   -2676.8322            0   -2628.7427    11.717157 
  453000    398.29457    -2675.202            0   -2627.7341    -8.147579 
  453200     404.5201    -2674.736            0   -2626.5262    15.061912 
  453400    383.51013   -2675.6165            0   -2629.9106   -6.5579743 
  453600    400.83727    -2674.414            0    -2626.643    9.0032058 
  453800    395.31523   -2674.3144            0   -2627.2016   -5.5450291 
  454000    407.19641    -2677.529            0   -2629.0002     6.513135 
  454200    384.16522   -2675.1314            0   -2629.3474   -7.5232444 
  454400    411.09781   -2675.0657            0    -2626.072    7.8715475 
  454600    393.78683   -2675.2326            0   -2628.3019   -8.9185433 
  454800    397.56486   -2677.1282            0   -2629.7473    5.9798368 
  455000    388.85155    -2675.142            0   -2628.7995    -4.103202 
  455200    401.48743   -2673.5802            0   -2625.7318     5.319531 
  455400     395.8828   -2676.4756            0   -2629.2951   -5.0536704 
  455600    387.17408   -2675.3703            0   -2629.2277    4.8008118 
  455800    400.90615   -2675.4017            0   -2627.6225   -3.0577584 
  456000    404.08801   -2675.8179            0   -2627.6595    0.1818027 
  456200    392.46358   -2675.6251            0   -2628.8522    2.7692773 
  456400    394.11585   -2675.2353            0   -2628.2654     1.014148 
  456600    399.56119   -2674.5499            0   -2626.9311  -0.50825417 
  456800      401.582   -2675.8472            0   -2627.9875   -3.1846941 
  457000    380.07607   -2675.7174            0   -2630.4207    3.5328197 
  457200    415.68799   -2677.3669            0   -2627.8261  -0.70263002 
  457400    402.71126   -2675.6125            0   -2627.6183    2.5260158 
  457600    396.82682   -2677.3573            0   -2630.0643   -1.9345143 
  457800    397.75797   -2676.0933            0   -2628.6893    1.0809788 
  458000    403.13783   -2676.2039            0   -2628.1588  -0.54342786 
  458200    412.60221   -2675.8976            0   -2626.7245    1.2711346 
  458400    395.22702   -2676.1907            0   -2629.0884   -1.1011009 
  458600    404.00664   -2677.2089            0   -2629.0602     2.899093 
  458800    417.76618   -2675.9661            0   -2626.1776   -3.8487303 
  459000     407.2963   -2675.4737            0    -2626.933    5.0536567 
  459200    379.81972   -2675.9707            0   -2630.7046   -1.3755712 
  459400    403.53764   -2675.6955            0   -2627.6028    1.4165452 
  459600    403.50151   -2674.0072            0   -2625.9187   -2.0066375 
  459800    401.44416   -2677.5839            0   -2629.7406    1.7216528 
  460000    397.30475   -2677.4742            0   -2630.1243   -3.3761076 
  460200    407.48247   -2675.5621            0   -2626.9992    4.1799086 
  460400      397.005   -2675.1609            0   -2627.8467   -3.5016498 
  460600    390.51022   -2675.6805            0   -2629.1403     2.203535 
  460800    380.82735   -2673.2262            0     -2627.84   -2.1846881 
  461000    408.08675   -2676.1682            0   -2627.5333   -0.4294432 
  461200    388.65955   -2674.9584            0   -2628.6388   0.24530887 
  461400    402.36452   -2675.4039            0    -2627.451   -2.7883942 
  461600     402.4953   -2674.8389            0   -2626.8704    2.3860489 
  461800    419.23232    -2677.512            0   -2627.5488   -0.1636309 
  462000    404.12539   -2676.1119            0   -2627.9491    3.0371464 
  462200    405.67321   -2675.6148            0   -2627.2675   0.75906095 
  462400    404.37874   -2674.8698            0   -2626.6769    1.1984146 
  462600    399.56113    -2675.762            0   -2628.1431    2.1490016 
  462800     395.2415   -2675.2356            0   -2628.1316   0.13819096 
  463000    411.90897   -2675.6565            0    -2626.566   -3.5139472 
  463200    406.61837   -2676.2393            0   -2627.7794    2.1775334 
  463400    385.47885   -2673.0535            0   -2627.1129    2.1217009 
  463600    395.62909   -2674.2966            0   -2627.1464    2.8322592 
  463800    389.33434   -2673.3974            0   -2626.9974   0.25331169 
  464000    414.53942   -2676.2337            0   -2626.8298   0.56618381 
  464200    389.26191   -2674.2573            0   -2627.8659   0.83383281 
  464400    402.38641   -2673.7425            0    -2625.787    4.7904397 
  464600    400.03858    -2675.009            0   -2627.3332   -7.0335501 
  464800    408.18609   -2675.8904            0   -2627.2436    2.4613658 
  465000     397.1597   -2674.8706            0    -2627.538   -5.2181818 
  465200     415.9375   -2676.0287            0   -2626.4581      1.58867 
  465400    412.13835   -2677.3286            0   -2628.2108   -6.9947827 
  465600    384.62088   -2674.3823            0    -2628.544    5.1402838 
  465800    401.58703   -2674.3347            0   -2626.4744   -1.3248255 
  466000    399.99743   -2674.8053            0   -2627.1345  -0.42451423 
  466200    386.31051    -2675.693            0   -2629.6534  -0.50002728 
  466400    389.08394   -2675.1074            0   -2628.7372  -0.59016083 
  466600    420.36959   -2675.2657            0    -2625.167    -1.058024 
  466800    408.79126   -2677.0216            0   -2628.3028   -3.3477437 
  467000    394.70428    -2677.273            0    -2630.233    5.9802451 
  467200    412.53498   -2675.6464            0   -2626.4814   -1.7062307 
  467400    410.93794   -2674.7048            0   -2625.7301     4.299737 
  467600    392.54905   -2676.9718            0   -2630.1887   -1.4304065 
  467800    398.46703   -2675.6038            0   -2628.1153    0.2479411 
  468000    404.82515   -2673.5709            0   -2625.3248   0.50522404 
  468200    409.62838   -2677.8963            0   -2629.0777   -1.1631465 
  468400    390.33064    -2676.799            0   -2630.2803   -1.1623829 
  468600    393.65955   -2672.4632            0   -2625.5477    -1.889961 
  468800    403.39693   -2674.5634            0   -2626.4874  -0.70586649 
  469000    382.51154   -2677.1931            0   -2631.6062    1.3227757 
  469200     406.3764   -2677.0903            0   -2628.6593   -3.3984396 
  469400    395.35121   -2672.3213            0   -2625.2041    2.4375159 
  469600    388.48046   -2676.5654            0   -2630.2672   0.84284707 
  469800    403.40041   -2677.8731            0   -2629.7967    3.2067104 
  470000     425.0431   -2674.9757            0     -2624.32    3.9092583 
  470200    399.73294   -2675.3399            0   -2627.7006   -2.3995705 
  470400    396.47579   -2678.9333            0   -2631.6822    4.2777752 
  470600    414.46909   -2676.3818            0   -2626.9863  -0.96150256 
  470800    409.38781   -2673.8297            0   -2625.0398  -0.19977046 
  471000    380.59169   -2676.9397            0   -2631.5816    3.8400181 
  471200    396.00266   -2677.2933            0   -2630.0985  -0.43728467 
  471400    415.37855   -2674.7228            0   -2625.2189    1.4405529 
  471600    402.63028   -2676.2682            0   -2628.2836   -2.2467377 
  471800    407.77122   -2679.0054            0   -2630.4081   0.95123597 
  472000    408.19811   -2676.2447            0   -2627.5966    2.3587558 
  472200    400.80089   -2675.4307            0   -2627.6641   -1.2475457 
  472400    387.38733   -2675.3506            0   -2629.1826      6.56001 
  472600     387.4997   -2675.1727            0   -2628.9913   -3.4744615 
  472800    396.17792   -2674.7545            0   -2627.5389    4.0446664 
  473000    397.13581   -2675.1107            0   -2627.7809   -5.4343716 
  473200    417.60456   -2678.2829            0   -2628.5137    1.7240406 
  473400    401.48996   -2677.9783            0   -2630.1296   -5.8230258 
  473600    411.45282   -2675.9677            0   -2626.9317  -0.43499245 
  473800    400.10065    -2674.922            0   -2627.2389   0.54454185 
  474000    399.42304   -2676.2171            0   -2628.6147    5.0525682 
  474200    383.77585   -2674.5953            0   -2628.8577   -3.8758033 
  474400    410.32066   -2676.0385            0   -2627.1373    5.3745311 
  474600    409.61443   -2677.5641            0   -2628.7471    -6.279245 
  474800    395.14957   -2676.0321            0    -2628.939    6.0303721 
  475000    396.26259   -2675.1934            0   -2627.9676   -1.4264565 
  475200    409.70182   -2676.0663            0   -2627.2389    3.5477801 
  475400    392.52468   -2675.5209            0   -2628.7406   -1.2432693 
  475600    396.65513   -2676.2997            0   -2629.0272    3.7195966 
  475800    397.33965   -2675.5128            0   -2628.1587   -5.2695537 
  476000    394.39439   -2674.9055            0   -2627.9024    2.6130014 
  476200    397.00001   -2677.3039            0   -2629.9903   -3.7485949 
  476400    394.74947   -2674.9488            0   -2627.9035    2.8043732 
  476600    392.82599   -2674.3151            0   -2627.4989   -2.9146024 
  476800    397.83149   -2676.0747            0    -2628.662    4.6275399 
  477000    399.27499    -2676.215            0   -2628.6302   -3.8501579 
  477200    411.23617   -2677.0283            0   -2628.0181    3.0511481 
  477400    392.81943   -2676.2188            0   -2629.4034    -5.576439 
  477600    419.82146   -2678.6476            0   -2628.6142    2.4290682 
  477800    410.97661    -2675.852            0   -2626.8726  -0.75450791 
  478000    390.46539   -2676.1181            0   -2629.5833    2.3276892 
  478200    388.96928   -2675.2185            0    -2628.862    0.2021672 
  478400    402.14559   -2675.8433            0   -2627.9164     1.560233 
  478600    381.18776   -2674.5772            0   -2629.1481   -2.9336078 
  478800    401.05086   -2677.3177            0   -2629.5213   0.90730657 
  479000    411.52668   -2675.8288            0   -2626.7839   -1.7651538 
  479200    399.52163    -2674.926            0   -2627.3119    1.1076145 
  479400    384.24514   -2676.7442            0   -2630.9507    4.2414032 
  479600     393.0401   -2675.3009            0   -2628.4593   0.76191673 
  479800    404.08553   -2673.8913            0   -2625.7333    1.7277443 
  480000    404.65045   -2677.4459            0   -2629.2205   -2.6913037 
  480200    397.68216   -2678.2501            0   -2630.8552   0.62160625 
  480400     402.7671   -2674.5866            0   -2626.5857    -2.951937 
  480600    417.85725   -2676.9759            0   -2627.1766   -2.6651968 
  480800    384.19674   -2676.9901            0   -2631.2023   -4.0318435 
  481000     417.3671   -2676.8235            0   -2627.0826  -0.25079489 
  481200      408.851   -2675.8185            0   -2627.0925    -4.814794 
  481400    393.60978   -2676.8415            0   -2629.9319    4.4244864 
  481600    425.48217   -2678.5265            0   -2627.8185   -7.8345769 
  481800    418.47491   -2676.7331            0   -2626.8602   0.21678174 
  482000    400.65512    -2677.033            0   -2629.2837   -2.9276372 
  482200    412.68905   -2677.6289            0   -2628.4455    2.0319012 
  482400    396.95454   -2675.0677            0   -2627.7595   -4.2385135 
  482600    377.28027    -2673.009            0   -2628.0456   -3.8060176 
  482800    410.47401   -2675.9362            0   -2627.0167  -0.22068663 
  483000    388.75263   -2676.1315            0   -2629.8008   -4.5105224 
  483200     389.8284   -2674.5359            0    -2628.077    8.2760887 
  483400    402.97416   -2675.1969            0   -2627.1713   -8.3838589 
  483600    415.79985   -2677.8781            0    -2628.324    5.0670059 
  483800    398.36991   -2676.7774            0   -2629.3005   -5.3304953 
  484000    407.87686   -2676.0617            0   -2627.4518    3.5093423 
  484200    397.14982   -2675.7064            0   -2628.3749   -3.1864386 
  484400    391.80169   -2675.6673            0   -2628.9732    4.1186235 
  484600    385.22413   -2673.4227            0   -2627.5125    1.1890227 
  484800    399.36519   -2674.5911            0   -2626.9956    2.1636534 
  485000    402.19623   -2677.1439            0    -2629.211    2.4261339 
  485200    394.90018   -2676.6105            0   -2629.5472    3.1273053 
  485400    398.36316   -2673.6836            0   -2626.2076   -1.9923022 
  485600    404.07232   -2677.3517            0   -2629.1952  -0.29868542 
  485800    387.68646   -2677.9671            0   -2631.7635   -3.3213096 
  486000    408.19349   -2675.7869            0   -2627.1392    1.9329607 
  486200    409.09489   -2676.3121            0   -2627.5571   -1.6006434 
  486400    390.27654   -2677.3558            0   -2630.8435    3.5148753 
  486600    406.41005   -2677.0049            0   -2628.5698   -2.1974103 
  486800    406.32868   -2674.9561            0   -2626.5307    3.8602837 
  487000    400.97038   -2675.4144            0   -2627.6277  -0.42426179 
  487200    399.65906    -2677.568            0   -2629.9375    2.8045515 
  487400    394.69202   -2676.6759            0   -2629.6373   0.87790098 
  487600    415.76691   -2677.3942            0    -2627.844    -3.932406 
  487800     399.5577   -2675.6942            0   -2628.0758    2.4897897 
  488000    391.24548   -2677.5755            0   -2630.9477   -2.0801985 
  488200    398.93791   -2676.0342            0   -2628.4897  -0.76182122 
  488400    410.12832   -2674.8713            0   -2625.9931   -1.9232664 
  488600    387.33833   -2677.6008            0   -2631.4386   -1.3930162 
  488800    404.02033   -2677.6673            0   -2629.5171    5.8463157 
  489000    421.23367   -2675.2223            0   -2625.0205   -2.4425776 
  489200    401.98303   -2676.7529            0   -2628.8454     1.047605 
  489400    388.13698   -2677.7036            0   -2631.4462  -0.13116179 
  489600    410.28866   -2674.7612            0   -2625.8639  -0.30845143 
  489800    410.49694   -2675.0543            0   -2626.1321   0.39349548 
  490000    389.24889   -2678.1201            0   -2631.7303   -3.6257358 
  490200    395.98491   -2675.8788            0   -2628.6862    2.7639396 
  490400     410.6748   -2674.3399            0   -2625.3965    1.4478497 
  490600    401.18676    -2675.978            0   -2628.1654   -1.7368067 
  490800    395.74049   -2677.4365            0    -2630.273   -1.6026905 
  491000    387.83735   -2674.2503            0   -2628.0287   0.71115476 
  491200    402.01419   -2676.2304            0   -2628.3192   -1.7442883 
  491400    396.66145   -2676.0469            0   -2628.7736   0.27557235 
  491600    400.18725    -2676.514            0   -2628.8206     3.548287 
  491800    400.63161   -2675.1374            0    -2627.391    1.6942552 
  492000    406.10318   -2676.6725            0    -2628.274   -1.4849747 
  492200    409.54549   -2677.2131            0   -2628.4043    3.3069594 
  492400      398.903   -2677.0288            0   -2629.4884     -3.69295 
  492600    404.16972   -2674.9742            0   -2626.8061    0.1581429 
  492800    408.16267    -2675.322            0    -2626.678    0.9305904 
  493000    373.26714   -2675.8377            0   -2631.3525    3.0968787 
  493200    409.74883   -2676.8211            0   -2627.9881    0.4739134 
  493400     409.2502   -2673.4998            0   -2624.7263 -0.072072897 
  493600    390.92018   -2677.5545            0   -2630.9655   -2.3410628 
  493800    385.55075   -2676.7782            0   -2630.8291    1.3322125 
  494000    413.76646   -2672.6005            0   -2623.2887   -7.8279223 
  494200    393.12638     -2674.46            0   -2627.6081    6.1265556 
  494400    370.27847   -2677.5206            0   -2633.3916    -2.632143 
  494600    412.41922   -2675.0252            0    -2625.874    8.0027648 
  494800    417.81335   -2674.7822            0   -2624.9881   -5.2989083 
  495000     385.7882   -2677.5532            0   -2631.5758    4.6400134 
  495200    400.17768   -2676.6085            0   -2628.9162   -0.5218254 
  495400    417.84194   -2672.9129            0   -2623.1154    1.4671666 
  495600     395.4085   -2677.2389            0    -2630.115    2.7168859 
  495800    376.13829   -2676.4043            0    -2631.577    3.5025441 
  496000    414.27398   -2673.0178            0   -2623.6455    3.1748549 
  496200    391.57043   -2675.7168            0   -2629.0503    1.8076793 
  496400    398.17299   -2679.2773            0   -2631.8239     2.951133 
  496600    403.74848   -2673.7774            0   -2625.6596   0.85426514 
  496800    398.27846   -2673.6573            0   -2626.1913    2.3900215 
  497000    381.56667   -2677.6744            0   -2632.2001   -0.8294965 
  497200    398.98984   -2675.7026            0   -2628.1518  -0.79231696 
  497400    399.23604   -2672.9683            0   -2625.3882   -5.0260278 
  497600    395.27703   -2675.9326            0   -2628.8244    3.9925787 
  497800    380.37535   -2676.2273            0    -2630.895   -1.9591391 
  498000    397.77924   -2674.1513            0   -2626.7448    1.2791694 
  498200    408.22616   -2674.8026            0    -2626.151   -2.4776602 
  498400    395.59086   -2678.0034            0   -2630.8577   0.92602044 
  498600    390.91726    -2675.953            0   -2629.3643  -0.89517688 
  498800    393.01576   -2673.3765            0   -2626.5377    1.6176296 
  499000    401.74826   -2675.9377            0   -2628.0582   -4.5644103 
  499200    410.78172   -2679.3163            0   -2630.3602    2.1619368 
  499400    407.10144   -2676.6695            0   -2628.1521   -4.4952541 
  499600    396.40022   -2674.3915            0   -2627.1494     4.177769 
  499800    397.85399   -2677.5238            0   -2630.1084   -6.4035635 
  500000    395.31821   -2675.6546            0   -2628.5414   0.87356865 
Loop time of 3079.76 on 1 procs for 500000 steps with 923 atoms

Performance: 28.054 ns/day, 0.855 hours/ns, 162.350 timesteps/s
99.7% CPU use with 1 MPI tasks x 1 OpenMP threads

MPI task timing breakdown:
Section |  min time  |  avg time  |  max time  |%varavg| %total
---------------------------------------------------------------
Pair    | 1237.9     | 1237.9     | 1237.9     |   0.0 | 40.19
Neigh   | 87.061     | 87.061     | 87.061     |   0.0 |  2.83
Comm    | 0.38794    | 0.38794    | 0.38794    |   0.0 |  0.01
Output  | 5.8183     | 5.8183     | 5.8183     |   0.0 |  0.19
Modify  | 1747.9     | 1747.9     | 1747.9     |   0.0 | 56.76
Other   |            | 0.6809     |            |       |  0.02

Nlocal:        923.000 ave         923 max         923 min
Histogram: 1 0 0 0 0 0 0 0 0 0
Nghost:        0.00000 ave           0 max           0 min
Histogram: 1 0 0 0 0 0 0 0 0 0
Neighs:        56119.0 ave       56119 max       56119 min
Histogram: 1 0 0 0 0 0 0 0 0 0

Total # of neighbors = 56119
Ave neighs/atom = 60.800650
Neighbor list builds = 100000
Dangerous builds = 0

print "All done!"
All done!
Total wall time: 0:51:19
