 Start File for LAMMPS

 309 atoms

 1 atom types
 
  -0.0 100.0 xlo xhi
  -0.0 100.0 ylo yhi
  -0.0 100.0 zlo zhi
  
 Masses

 1  195.09
 
 Atoms

1 1 50 50 50
2 1 48.0618 48.0618 50
3 1 48.0618 50 48.0618
4 1 48.0618 50 51.9382
5 1 48.0618 51.9382 50
6 1 50 48.0618 48.0618
7 1 50 48.0618 51.9382
8 1 50 51.9382 48.0618
9 1 50 51.9382 51.9382
10 1 51.9382 48.0618 50
11 1 51.9382 50 48.0618
12 1 51.9382 50 51.9382
13 1 51.9382 51.9382 50
14 1 46.0863 50 50
15 1 50 46.0863 50
16 1 50 50 46.0863
17 1 50 50 53.9137
18 1 50 53.9137 50
19 1 53.9137 50 50
20 1 46.1108 48.0447 48.0447
21 1 46.1108 48.0447 51.9553
22 1 46.1108 51.9553 48.0447
23 1 46.1108 51.9553 51.9553
24 1 48.0447 46.1108 48.0447
25 1 48.0447 46.1108 51.9553
26 1 48.0447 48.0447 46.1108
27 1 48.0447 48.0447 53.8892
28 1 48.0447 51.9553 46.1108
29 1 48.0447 51.9553 53.8892
30 1 48.0447 53.8892 48.0447
31 1 48.0447 53.8892 51.9553
32 1 51.9553 46.1108 48.0447
33 1 51.9553 46.1108 51.9553
34 1 51.9553 48.0447 46.1108
35 1 51.9553 48.0447 53.8892
36 1 51.9553 51.9553 46.1108
37 1 51.9553 51.9553 53.8892
38 1 51.9553 53.8892 48.0447
39 1 51.9553 53.8892 51.9553
40 1 53.8892 48.0447 48.0447
41 1 53.8892 48.0447 51.9553
42 1 53.8892 51.9553 48.0447
43 1 53.8892 51.9553 51.9553
44 1 46.1669 46.1669 50
45 1 46.1669 50 46.1669
46 1 46.1669 50 53.8331
47 1 46.1669 53.8331 50
48 1 50 46.1669 46.1669
49 1 50 46.1669 53.8331
50 1 50 53.8331 46.1669
51 1 50 53.8331 53.8331
52 1 53.8331 46.1669 50
53 1 53.8331 50 46.1669
54 1 53.8331 50 53.8331
55 1 53.8331 53.8331 50
56 1 44.1026 48.0839 50
57 1 44.1026 50 48.0839
58 1 44.1026 50 51.9161
59 1 44.1026 51.9161 50
60 1 48.0839 44.1026 50
61 1 48.0839 50 44.1026
62 1 48.0839 50 55.8974
63 1 48.0839 55.8974 50
64 1 50 44.1026 48.0839
65 1 50 44.1026 51.9161
66 1 50 48.0839 44.1026
67 1 50 48.0839 55.8974
68 1 50 51.9161 44.1026
69 1 50 51.9161 55.8974
70 1 50 55.8974 48.0839
71 1 50 55.8974 51.9161
72 1 51.9161 44.1026 50
73 1 51.9161 50 44.1026
74 1 51.9161 50 55.8974
75 1 51.9161 55.8974 50
76 1 55.8974 48.0839 50
77 1 55.8974 50 48.0839
78 1 55.8974 50 51.9161
79 1 55.8974 51.9161 50
80 1 45.994 45.994 45.994
81 1 45.994 45.994 54.006
82 1 45.994 54.006 45.994
83 1 45.994 54.006 54.006
84 1 54.006 45.994 45.994
85 1 54.006 45.994 54.006
86 1 54.006 54.006 45.994
87 1 54.006 54.006 54.006
88 1 44.1847 46.1405 48.0289
89 1 44.1847 46.1405 51.9711
90 1 44.1847 48.0289 46.1405
91 1 44.1847 48.0289 53.8595
92 1 44.1847 51.9711 46.1405
93 1 44.1847 51.9711 53.8595
94 1 44.1847 53.8595 48.0289
95 1 44.1847 53.8595 51.9711
96 1 46.1405 44.1847 48.0289
97 1 46.1405 44.1847 51.9711
98 1 46.1405 48.0289 44.1847
99 1 46.1405 48.0289 55.8153
100 1 46.1405 51.9711 44.1847
101 1 46.1405 51.9711 55.8153
102 1 46.1405 55.8153 48.0289
103 1 46.1405 55.8153 51.9711
104 1 48.0289 44.1847 46.1405
105 1 48.0289 44.1847 53.8595
106 1 48.0289 46.1405 44.1847
107 1 48.0289 46.1405 55.8153
108 1 48.0289 53.8595 44.1847
109 1 48.0289 53.8595 55.8153
110 1 48.0289 55.8153 46.1405
111 1 48.0289 55.8153 53.8595
112 1 51.9711 44.1847 46.1405
113 1 51.9711 44.1847 53.8595
114 1 51.9711 46.1405 44.1847
115 1 51.9711 46.1405 55.8153
116 1 51.9711 53.8595 44.1847
117 1 51.9711 53.8595 55.8153
118 1 51.9711 55.8153 46.1405
119 1 51.9711 55.8153 53.8595
120 1 53.8595 44.1847 48.0289
121 1 53.8595 44.1847 51.9711
122 1 53.8595 48.0289 44.1847
123 1 53.8595 48.0289 55.8153
124 1 53.8595 51.9711 44.1847
125 1 53.8595 51.9711 55.8153
126 1 53.8595 55.8153 48.0289
127 1 53.8595 55.8153 51.9711
128 1 55.8153 46.1405 48.0289
129 1 55.8153 46.1405 51.9711
130 1 55.8153 48.0289 46.1405
131 1 55.8153 48.0289 53.8595
132 1 55.8153 51.9711 46.1405
133 1 55.8153 51.9711 53.8595
134 1 55.8153 53.8595 48.0289
135 1 55.8153 53.8595 51.9711
136 1 44.3615 44.3615 50
137 1 44.3615 50 44.3615
138 1 44.3615 50 55.6385
139 1 44.3615 55.6385 50
140 1 50 44.3615 44.3615
141 1 50 44.3615 55.6385
142 1 50 55.6385 44.3615
143 1 50 55.6385 55.6385
144 1 55.6385 44.3615 50
145 1 55.6385 50 44.3615
146 1 55.6385 50 55.6385
147 1 55.6385 55.6385 50
148 1 42.1244 50 50
149 1 50 42.1244 50
150 1 50 50 42.1244
151 1 50 50 57.8756
152 1 50 57.8756 50
153 1 57.8756 50 50
154 1 42.1729 48.0416 48.0416
155 1 42.1729 48.0416 51.9584
156 1 42.1729 51.9584 48.0416
157 1 42.1729 51.9584 51.9584
158 1 48.0416 42.1729 48.0416
159 1 48.0416 42.1729 51.9584
160 1 48.0416 48.0416 42.1729
161 1 48.0416 48.0416 57.8271
162 1 48.0416 51.9584 42.1729
163 1 48.0416 51.9584 57.8271
164 1 48.0416 57.8271 48.0416
165 1 48.0416 57.8271 51.9584
166 1 51.9584 42.1729 48.0416
167 1 51.9584 42.1729 51.9584
168 1 51.9584 48.0416 42.1729
169 1 51.9584 48.0416 57.8271
170 1 51.9584 51.9584 42.1729
171 1 51.9584 51.9584 57.8271
172 1 51.9584 57.8271 48.0416
173 1 51.9584 57.8271 51.9584
174 1 57.8271 48.0416 48.0416
175 1 57.8271 48.0416 51.9584
176 1 57.8271 51.9584 48.0416
177 1 57.8271 51.9584 51.9584
178 1 42.238 46.0714 50
179 1 42.238 50 46.0714
180 1 42.238 50 53.9286
181 1 42.238 53.9286 50
182 1 46.0714 42.238 50
183 1 46.0714 50 42.238
184 1 46.0714 50 57.762
185 1 46.0714 57.762 50
186 1 50 42.238 46.0714
187 1 50 42.238 53.9286
188 1 50 46.0714 42.238
189 1 50 46.0714 57.762
190 1 50 53.9286 42.238
191 1 50 53.9286 57.762
192 1 50 57.762 46.0714
193 1 50 57.762 53.9286
194 1 53.9286 42.238 50
195 1 53.9286 50 42.238
196 1 53.9286 50 57.762
197 1 53.9286 57.762 50
198 1 57.762 46.0714 50
199 1 57.762 50 46.0714
200 1 57.762 50 53.9286
201 1 57.762 53.9286 50
202 1 44.0143 44.0143 45.8669
203 1 44.0143 44.0143 54.1331
204 1 44.0143 45.8669 44.0143
205 1 44.0143 45.8669 55.9857
206 1 44.0143 54.1331 44.0143
207 1 44.0143 54.1331 55.9857
208 1 44.0143 55.9857 45.8669
209 1 44.0143 55.9857 54.1331
210 1 45.8669 44.0143 44.0143
211 1 45.8669 44.0143 55.9857
212 1 45.8669 55.9857 44.0143
213 1 45.8669 55.9857 55.9857
214 1 54.1331 44.0143 44.0143
215 1 54.1331 44.0143 55.9857
216 1 54.1331 55.9857 44.0143
217 1 54.1331 55.9857 55.9857
218 1 55.9857 44.0143 45.8669
219 1 55.9857 44.0143 54.1331
220 1 55.9857 45.8669 44.0143
221 1 55.9857 45.8669 55.9857
222 1 55.9857 54.1331 44.0143
223 1 55.9857 54.1331 55.9857
224 1 55.9857 55.9857 45.8669
225 1 55.9857 55.9857 54.1331
226 1 42.3685 46.0636 46.0636
227 1 42.3685 46.0636 53.9364
228 1 42.3685 53.9364 46.0636
229 1 42.3685 53.9364 53.9364
230 1 46.0636 42.3685 46.0636
231 1 46.0636 42.3685 53.9364
232 1 46.0636 46.0636 42.3685
233 1 46.0636 46.0636 57.6315
234 1 46.0636 53.9364 42.3685
235 1 46.0636 53.9364 57.6315
236 1 46.0636 57.6315 46.0636
237 1 46.0636 57.6315 53.9364
238 1 53.9364 42.3685 46.0636
239 1 53.9364 42.3685 53.9364
240 1 53.9364 46.0636 42.3685
241 1 53.9364 46.0636 57.6315
242 1 53.9364 53.9364 42.3685
243 1 53.9364 53.9364 57.6315
244 1 53.9364 57.6315 46.0636
245 1 53.9364 57.6315 53.9364
246 1 57.6315 46.0636 46.0636
247 1 57.6315 46.0636 53.9364
248 1 57.6315 53.9364 46.0636
249 1 57.6315 53.9364 53.9364
250 1 42.3612 44.2213 47.9346
251 1 42.3612 44.2213 52.0654
252 1 42.3612 47.9346 44.2213
253 1 42.3612 47.9346 55.7787
254 1 42.3612 52.0654 44.2213
255 1 42.3612 52.0654 55.7787
256 1 42.3612 55.7787 47.9346
257 1 42.3612 55.7787 52.0654
258 1 44.2213 42.3612 47.9346
259 1 44.2213 42.3612 52.0654
260 1 44.2213 47.9346 42.3612
261 1 44.2213 47.9346 57.6388
262 1 44.2213 52.0654 42.3612
263 1 44.2213 52.0654 57.6388
264 1 44.2213 57.6388 47.9346
265 1 44.2213 57.6388 52.0654
266 1 47.9346 42.3612 44.2213
267 1 47.9346 42.3612 55.7787
268 1 47.9346 44.2213 42.3612
269 1 47.9346 44.2213 57.6388
270 1 47.9346 55.7787 42.3612
271 1 47.9346 55.7787 57.6388
272 1 47.9346 57.6388 44.2213
273 1 47.9346 57.6388 55.7787
274 1 52.0654 42.3612 44.2213
275 1 52.0654 42.3612 55.7787
276 1 52.0654 44.2213 42.3612
277 1 52.0654 44.2213 57.6388
278 1 52.0654 55.7787 42.3612
279 1 52.0654 55.7787 57.6388
280 1 52.0654 57.6388 44.2213
281 1 52.0654 57.6388 55.7787
282 1 55.7787 42.3612 47.9346
283 1 55.7787 42.3612 52.0654
284 1 55.7787 47.9346 42.3612
285 1 55.7787 47.9346 57.6388
286 1 55.7787 52.0654 42.3612
287 1 55.7787 52.0654 57.6388
288 1 55.7787 57.6388 47.9346
289 1 55.7787 57.6388 52.0654
290 1 57.6388 44.2213 47.9346
291 1 57.6388 44.2213 52.0654
292 1 57.6388 47.9346 44.2213
293 1 57.6388 47.9346 55.7787
294 1 57.6388 52.0654 44.2213
295 1 57.6388 52.0654 55.7787
296 1 57.6388 55.7787 47.9346
297 1 57.6388 55.7787 52.0654
298 1 42.6168 42.6168 50
299 1 42.6168 50 42.6168
300 1 42.6168 50 57.3832
301 1 42.6168 57.3832 50
302 1 50 42.6168 42.6168
303 1 50 42.6168 57.3832
304 1 50 57.3832 42.6168
305 1 50 57.3832 57.3832
306 1 57.3832 42.6168 50
307 1 57.3832 50 42.6168
308 1 57.3832 50 57.3832
309 1 57.3832 57.3832 50
