 Start File for LAMMPS

 923 atoms

 1 atom types
 
  -0.0 200.0 xlo xhi
  -0.0 200.0 ylo yhi
  -0.0 200.0 zlo zhi
  
 Masses

 1  195.09
 
 Atoms

1 1 100 100 100
2 1 98.0509 98.0509 100
3 1 98.0509 100 98.0509
4 1 98.0509 100 101.949
5 1 98.0509 101.949 100
6 1 100 98.0509 98.0509
7 1 100 98.0509 101.949
8 1 100 101.949 98.0509
9 1 100 101.949 101.949
10 1 101.949 98.0509 100
11 1 101.949 100 98.0509
12 1 101.949 100 101.949
13 1 101.949 101.949 100
14 1 96.0952 100 100
15 1 100 96.0952 100
16 1 100 100 96.0952
17 1 100 100 103.905
18 1 100 103.905 100
19 1 103.905 100 100
20 1 96.0997 98.0508 98.0508
21 1 96.0997 98.0508 101.949
22 1 96.0997 101.949 98.0508
23 1 96.0997 101.949 101.949
24 1 98.0508 96.0997 98.0508
25 1 98.0508 96.0997 101.949
26 1 98.0508 98.0508 96.0997
27 1 98.0508 98.0508 103.9
28 1 98.0508 101.949 96.0997
29 1 98.0508 101.949 103.9
30 1 98.0508 103.9 98.0508
31 1 98.0508 103.9 101.949
32 1 101.949 96.0997 98.0508
33 1 101.949 96.0997 101.949
34 1 101.949 98.0508 96.0997
35 1 101.949 98.0508 103.9
36 1 101.949 101.949 96.0997
37 1 101.949 101.949 103.9
38 1 101.949 103.9 98.0508
39 1 101.949 103.9 101.949
40 1 103.9 98.0508 98.0508
41 1 103.9 98.0508 101.949
42 1 103.9 101.949 98.0508
43 1 103.9 101.949 101.949
44 1 96.1075 96.1075 100
45 1 96.1075 100 96.1075
46 1 96.1075 100 103.892
47 1 96.1075 103.892 100
48 1 100 96.1075 96.1075
49 1 100 96.1075 103.892
50 1 100 103.892 96.1075
51 1 100 103.892 103.892
52 1 103.892 96.1075 100
53 1 103.892 100 96.1075
54 1 103.892 100 103.892
55 1 103.892 103.892 100
56 1 94.1354 98.0585 100
57 1 94.1354 100 98.0585
58 1 94.1354 100 101.941
59 1 94.1354 101.941 100
60 1 98.0585 94.1354 100
61 1 98.0585 100 94.1354
62 1 98.0585 100 105.864
63 1 98.0585 105.864 100
64 1 100 94.1354 98.0585
65 1 100 94.1354 101.941
66 1 100 98.0585 94.1354
67 1 100 98.0585 105.864
68 1 100 101.941 94.1354
69 1 100 101.941 105.864
70 1 100 105.864 98.0585
71 1 100 105.864 101.941
72 1 101.941 94.1354 100
73 1 101.941 100 94.1354
74 1 101.941 100 105.864
75 1 101.941 105.864 100
76 1 105.864 98.0585 100
77 1 105.864 100 98.0585
78 1 105.864 100 101.941
79 1 105.864 101.941 100
80 1 96.0891 96.0891 96.0891
81 1 96.0891 96.0891 103.911
82 1 96.0891 103.911 96.0891
83 1 96.0891 103.911 103.911
84 1 103.911 96.0891 96.0891
85 1 103.911 96.0891 103.911
86 1 103.911 103.911 96.0891
87 1 103.911 103.911 103.911
88 1 94.1531 96.1127 98.0444
89 1 94.1531 96.1127 101.956
90 1 94.1531 98.0444 96.1127
91 1 94.1531 98.0444 103.887
92 1 94.1531 101.956 96.1127
93 1 94.1531 101.956 103.887
94 1 94.1531 103.887 98.0444
95 1 94.1531 103.887 101.956
96 1 96.1127 94.1531 98.0444
97 1 96.1127 94.1531 101.956
98 1 96.1127 98.0444 94.1531
99 1 96.1127 98.0444 105.847
100 1 96.1127 101.956 94.1531
101 1 96.1127 101.956 105.847
102 1 96.1127 105.847 98.0444
103 1 96.1127 105.847 101.956
104 1 98.0444 94.1531 96.1127
105 1 98.0444 94.1531 103.887
106 1 98.0444 96.1127 94.1531
107 1 98.0444 96.1127 105.847
108 1 98.0444 103.887 94.1531
109 1 98.0444 103.887 105.847
110 1 98.0444 105.847 96.1127
111 1 98.0444 105.847 103.887
112 1 101.956 94.1531 96.1127
113 1 101.956 94.1531 103.887
114 1 101.956 96.1127 94.1531
115 1 101.956 96.1127 105.847
116 1 101.956 103.887 94.1531
117 1 101.956 103.887 105.847
118 1 101.956 105.847 96.1127
119 1 101.956 105.847 103.887
120 1 103.887 94.1531 98.0444
121 1 103.887 94.1531 101.956
122 1 103.887 98.0444 94.1531
123 1 103.887 98.0444 105.847
124 1 103.887 101.956 94.1531
125 1 103.887 101.956 105.847
126 1 103.887 105.847 98.0444
127 1 103.887 105.847 101.956
128 1 105.847 96.1127 98.0444
129 1 105.847 96.1127 101.956
130 1 105.847 98.0444 96.1127
131 1 105.847 98.0444 103.887
132 1 105.847 101.956 96.1127
133 1 105.847 101.956 103.887
134 1 105.847 103.887 98.0444
135 1 105.847 103.887 101.956
136 1 92.1488 100 100
137 1 100 92.1488 100
138 1 100 100 92.1488
139 1 100 100 107.851
140 1 100 107.851 100
141 1 107.851 100 100
142 1 92.1652 98.0593 98.0593
143 1 92.1652 98.0593 101.941
144 1 92.1652 101.941 98.0593
145 1 92.1652 101.941 101.941
146 1 94.1871 94.1871 100
147 1 94.1871 100 94.1871
148 1 94.1871 100 105.813
149 1 94.1871 105.813 100
150 1 98.0593 92.1652 98.0593
151 1 98.0593 92.1652 101.941
152 1 98.0593 98.0593 92.1652
153 1 98.0593 98.0593 107.835
154 1 98.0593 101.941 92.1652
155 1 98.0593 101.941 107.835
156 1 98.0593 107.835 98.0593
157 1 98.0593 107.835 101.941
158 1 100 94.1871 94.1871
159 1 100 94.1871 105.813
160 1 100 105.813 94.1871
161 1 100 105.813 105.813
162 1 101.941 92.1652 98.0593
163 1 101.941 92.1652 101.941
164 1 101.941 98.0593 92.1652
165 1 101.941 98.0593 107.835
166 1 101.941 101.941 92.1652
167 1 101.941 101.941 107.835
168 1 101.941 107.835 98.0593
169 1 101.941 107.835 101.941
170 1 105.813 94.1871 100
171 1 105.813 100 94.1871
172 1 105.813 100 105.813
173 1 105.813 105.813 100
174 1 107.835 98.0593 98.0593
175 1 107.835 98.0593 101.941
176 1 107.835 101.941 98.0593
177 1 107.835 101.941 101.941
178 1 92.1819 96.1305 100
179 1 92.1819 100 96.1305
180 1 92.1819 100 103.869
181 1 92.1819 103.869 100
182 1 96.1305 92.1819 100
183 1 96.1305 100 92.1819
184 1 96.1305 100 107.818
185 1 96.1305 107.818 100
186 1 100 92.1819 96.1305
187 1 100 92.1819 103.869
188 1 100 96.1305 92.1819
189 1 100 96.1305 107.818
190 1 100 103.869 92.1819
191 1 100 103.869 107.818
192 1 100 107.818 96.1305
193 1 100 107.818 103.869
194 1 103.869 92.1819 100
195 1 103.869 100 92.1819
196 1 103.869 100 107.818
197 1 103.869 107.818 100
198 1 107.818 96.1305 100
199 1 107.818 100 96.1305
200 1 107.818 100 103.869
201 1 107.818 103.869 100
202 1 94.1298 94.1298 96.051
203 1 94.1298 94.1298 103.949
204 1 94.1298 96.051 94.1298
205 1 94.1298 96.051 105.87
206 1 94.1298 103.949 94.1298
207 1 94.1298 103.949 105.87
208 1 94.1298 105.87 96.051
209 1 94.1298 105.87 103.949
210 1 96.051 94.1298 94.1298
211 1 96.051 94.1298 105.87
212 1 96.051 105.87 94.1298
213 1 96.051 105.87 105.87
214 1 103.949 94.1298 94.1298
215 1 103.949 94.1298 105.87
216 1 103.949 105.87 94.1298
217 1 103.949 105.87 105.87
218 1 105.87 94.1298 96.051
219 1 105.87 94.1298 103.949
220 1 105.87 96.051 94.1298
221 1 105.87 96.051 105.87
222 1 105.87 103.949 94.1298
223 1 105.87 103.949 105.87
224 1 105.87 105.87 96.051
225 1 105.87 105.87 103.949
226 1 92.2118 96.0967 96.0967
227 1 92.2118 96.0967 103.903
228 1 92.2118 103.903 96.0967
229 1 92.2118 103.903 103.903
230 1 96.0967 92.2118 96.0967
231 1 96.0967 92.2118 103.903
232 1 96.0967 96.0967 92.2118
233 1 96.0967 96.0967 107.788
234 1 96.0967 103.903 92.2118
235 1 96.0967 103.903 107.788
236 1 96.0967 107.788 96.0967
237 1 96.0967 107.788 103.903
238 1 103.903 92.2118 96.0967
239 1 103.903 92.2118 103.903
240 1 103.903 96.0967 92.2118
241 1 103.903 96.0967 107.788
242 1 103.903 103.903 92.2118
243 1 103.903 103.903 107.788
244 1 103.903 107.788 96.0967
245 1 103.903 107.788 103.903
246 1 107.788 96.0967 96.0967
247 1 107.788 96.0967 103.903
248 1 107.788 103.903 96.0967
249 1 107.788 103.903 103.903
250 1 90.1627 98.0636 100
251 1 90.1627 100 98.0636
252 1 90.1627 100 101.936
253 1 90.1627 101.936 100
254 1 92.2244 94.1977 98.0428
255 1 92.2244 94.1977 101.957
256 1 92.2244 98.0428 94.1977
257 1 92.2244 98.0428 105.802
258 1 92.2244 101.957 94.1977
259 1 92.2244 101.957 105.802
260 1 92.2244 105.802 98.0428
261 1 92.2244 105.802 101.957
262 1 94.1977 92.2244 98.0428
263 1 94.1977 92.2244 101.957
264 1 94.1977 98.0428 92.2244
265 1 94.1977 98.0428 107.776
266 1 94.1977 101.957 92.2244
267 1 94.1977 101.957 107.776
268 1 94.1977 107.776 98.0428
269 1 94.1977 107.776 101.957
270 1 98.0636 90.1627 100
271 1 98.0428 92.2244 94.1977
272 1 98.0428 92.2244 105.802
273 1 98.0428 94.1977 92.2244
274 1 98.0428 94.1977 107.776
275 1 98.0636 100 90.1627
276 1 98.0636 100 109.837
277 1 98.0428 105.802 92.2244
278 1 98.0428 105.802 107.776
279 1 98.0428 107.776 94.1977
280 1 98.0428 107.776 105.802
281 1 98.0636 109.837 100
282 1 100 90.1627 98.0636
283 1 100 90.1627 101.936
284 1 100 98.0636 90.1627
285 1 100 98.0636 109.837
286 1 100 101.936 90.1627
287 1 100 101.936 109.837
288 1 100 109.837 98.0636
289 1 100 109.837 101.936
290 1 101.936 90.1627 100
291 1 101.957 92.2244 94.1977
292 1 101.957 92.2244 105.802
293 1 101.957 94.1977 92.2244
294 1 101.957 94.1977 107.776
295 1 101.936 100 90.1627
296 1 101.936 100 109.837
297 1 101.957 105.802 92.2244
298 1 101.957 105.802 107.776
299 1 101.957 107.776 94.1977
300 1 101.957 107.776 105.802
301 1 101.936 109.837 100
302 1 105.802 92.2244 98.0428
303 1 105.802 92.2244 101.957
304 1 105.802 98.0428 92.2244
305 1 105.802 98.0428 107.776
306 1 105.802 101.957 92.2244
307 1 105.802 101.957 107.776
308 1 105.802 107.776 98.0428
309 1 105.802 107.776 101.957
310 1 107.776 94.1977 98.0428
311 1 107.776 94.1977 101.957
312 1 107.776 98.0428 94.1977
313 1 107.776 98.0428 105.802
314 1 107.776 101.957 94.1977
315 1 107.776 101.957 105.802
316 1 107.776 105.802 98.0428
317 1 107.776 105.802 101.957
318 1 109.837 98.0636 100
319 1 109.837 100 98.0636
320 1 109.837 100 101.936
321 1 109.837 101.936 100
322 1 90.1951 96.1353 98.0652
323 1 90.1951 96.1353 101.935
324 1 90.1951 98.0652 96.1353
325 1 90.1951 98.0652 103.865
326 1 90.1951 101.935 96.1353
327 1 90.1951 101.935 103.865
328 1 90.1951 103.865 98.0652
329 1 90.1951 103.865 101.935
330 1 96.1353 90.1951 98.0652
331 1 96.1353 90.1951 101.935
332 1 96.1353 98.0652 90.1951
333 1 96.1353 98.0652 109.805
334 1 96.1353 101.935 90.1951
335 1 96.1353 101.935 109.805
336 1 96.1353 109.805 98.0652
337 1 96.1353 109.805 101.935
338 1 98.0652 90.1951 96.1353
339 1 98.0652 90.1951 103.865
340 1 98.0652 96.1353 90.1951
341 1 98.0652 96.1353 109.805
342 1 98.0652 103.865 90.1951
343 1 98.0652 103.865 109.805
344 1 98.0652 109.805 96.1353
345 1 98.0652 109.805 103.865
346 1 101.935 90.1951 96.1353
347 1 101.935 90.1951 103.865
348 1 101.935 96.1353 90.1951
349 1 101.935 96.1353 109.805
350 1 101.935 103.865 90.1951
351 1 101.935 103.865 109.805
352 1 101.935 109.805 96.1353
353 1 101.935 109.805 103.865
354 1 103.865 90.1951 98.0652
355 1 103.865 90.1951 101.935
356 1 103.865 98.0652 90.1951
357 1 103.865 98.0652 109.805
358 1 103.865 101.935 90.1951
359 1 103.865 101.935 109.805
360 1 103.865 109.805 98.0652
361 1 103.865 109.805 101.935
362 1 109.805 96.1353 98.0652
363 1 109.805 96.1353 101.935
364 1 109.805 98.0652 96.1353
365 1 109.805 98.0652 103.865
366 1 109.805 101.935 96.1353
367 1 109.805 101.935 103.865
368 1 109.805 103.865 98.0652
369 1 109.805 103.865 101.935
370 1 92.3104 92.3104 100
371 1 92.3104 100 92.3104
372 1 92.3104 100 107.689
373 1 92.3104 107.689 100
374 1 100 92.3104 92.3104
375 1 100 92.3104 107.689
376 1 100 107.689 92.3104
377 1 100 107.689 107.689
378 1 107.689 92.3104 100
379 1 107.689 100 92.3104
380 1 107.689 100 107.689
381 1 107.689 107.689 100
382 1 90.2291 94.2122 100
383 1 90.2291 100 94.2122
384 1 90.2291 100 105.788
385 1 90.2291 105.788 100
386 1 92.115 94.0702 94.0702
387 1 92.115 94.0702 105.93
388 1 92.115 105.93 94.0702
389 1 92.115 105.93 105.93
390 1 94.2122 90.2291 100
391 1 94.0702 92.115 94.0702
392 1 94.0702 92.115 105.93
393 1 94.0702 94.0702 92.115
394 1 94.0702 94.0702 107.885
395 1 94.2122 100 90.2291
396 1 94.2122 100 109.771
397 1 94.0702 105.93 92.115
398 1 94.0702 105.93 107.885
399 1 94.0702 107.885 94.0702
400 1 94.0702 107.885 105.93
401 1 94.2122 109.771 100
402 1 100 90.2291 94.2122
403 1 100 90.2291 105.788
404 1 100 94.2122 90.2291
405 1 100 94.2122 109.771
406 1 100 105.788 90.2291
407 1 100 105.788 109.771
408 1 100 109.771 94.2122
409 1 100 109.771 105.788
410 1 105.788 90.2291 100
411 1 105.93 92.115 94.0702
412 1 105.93 92.115 105.93
413 1 105.93 94.0702 92.115
414 1 105.93 94.0702 107.885
415 1 105.788 100 90.2291
416 1 105.788 100 109.771
417 1 105.93 105.93 92.115
418 1 105.93 105.93 107.885
419 1 105.93 107.885 94.0702
420 1 105.93 107.885 105.93
421 1 105.788 109.771 100
422 1 107.885 94.0702 94.0702
423 1 107.885 94.0702 105.93
424 1 107.885 105.93 94.0702
425 1 107.885 105.93 105.93
426 1 109.771 94.2122 100
427 1 109.771 100 94.2122
428 1 109.771 100 105.788
429 1 109.771 105.788 100
430 1 92.1985 92.1985 96.0847
431 1 92.1985 92.1985 103.915
432 1 92.1985 96.0847 92.1985
433 1 92.1985 96.0847 107.801
434 1 92.1985 103.915 92.1985
435 1 92.1985 103.915 107.801
436 1 92.1985 107.801 96.0847
437 1 92.1985 107.801 103.915
438 1 96.0847 92.1985 92.1985
439 1 96.0847 92.1985 107.801
440 1 96.0847 107.801 92.1985
441 1 96.0847 107.801 107.801
442 1 103.915 92.1985 92.1985
443 1 103.915 92.1985 107.801
444 1 103.915 107.801 92.1985
445 1 103.915 107.801 107.801
446 1 107.801 92.1985 96.0847
447 1 107.801 92.1985 103.915
448 1 107.801 96.0847 92.1985
449 1 107.801 96.0847 107.801
450 1 107.801 103.915 92.1985
451 1 107.801 103.915 107.801
452 1 107.801 107.801 96.0847
453 1 107.801 107.801 103.915
454 1 90.3071 94.1839 96.0969
455 1 90.3071 94.1839 103.903
456 1 90.3071 96.0969 94.1839
457 1 90.3071 96.0969 105.816
458 1 90.3071 103.903 94.1839
459 1 90.3071 103.903 105.816
460 1 90.3071 105.816 96.0969
461 1 90.3071 105.816 103.903
462 1 94.1839 90.3071 96.0969
463 1 94.1839 90.3071 103.903
464 1 94.1839 96.0969 90.3071
465 1 94.1839 96.0969 109.693
466 1 94.1839 103.903 90.3071
467 1 94.1839 103.903 109.693
468 1 94.1839 109.693 96.0969
469 1 94.1839 109.693 103.903
470 1 96.0969 90.3071 94.1839
471 1 96.0969 90.3071 105.816
472 1 96.0969 94.1839 90.3071
473 1 96.0969 94.1839 109.693
474 1 96.0969 105.816 90.3071
475 1 96.0969 105.816 109.693
476 1 96.0969 109.693 94.1839
477 1 96.0969 109.693 105.816
478 1 103.903 90.3071 94.1839
479 1 103.903 90.3071 105.816
480 1 103.903 94.1839 90.3071
481 1 103.903 94.1839 109.693
482 1 103.903 105.816 90.3071
483 1 103.903 105.816 109.693
484 1 103.903 109.693 94.1839
485 1 103.903 109.693 105.816
486 1 105.816 90.3071 96.0969
487 1 105.816 90.3071 103.903
488 1 105.816 96.0969 90.3071
489 1 105.816 96.0969 109.693
490 1 105.816 103.903 90.3071
491 1 105.816 103.903 109.693
492 1 105.816 109.693 96.0969
493 1 105.816 109.693 103.903
494 1 109.693 94.1839 96.0969
495 1 109.693 94.1839 103.903
496 1 109.693 96.0969 94.1839
497 1 109.693 96.0969 105.816
498 1 109.693 103.903 94.1839
499 1 109.693 103.903 105.816
500 1 109.693 105.816 96.0969
501 1 109.693 105.816 103.903
502 1 90.3114 92.2798 98.0086
503 1 90.3114 92.2798 101.991
504 1 90.3114 107.72 98.0086
505 1 90.3114 107.72 101.991
506 1 92.2798 90.3114 98.0086
507 1 92.2798 90.3114 101.991
508 1 92.2798 109.689 98.0086
509 1 92.2798 109.689 101.991
510 1 107.72 90.3114 98.0086
511 1 107.72 90.3114 101.991
512 1 107.72 109.689 98.0086
513 1 107.72 109.689 101.991
514 1 109.689 92.2798 98.0086
515 1 109.689 92.2798 101.991
516 1 109.689 107.72 98.0086
517 1 109.689 107.72 101.991
518 1 90.3114 98.0086 92.2798
519 1 90.3114 98.0086 107.72
520 1 90.3114 101.991 92.2798
521 1 90.3114 101.991 107.72
522 1 92.2798 98.0086 90.3114
523 1 92.2798 98.0086 109.689
524 1 92.2798 101.991 90.3114
525 1 92.2798 101.991 109.689
526 1 98.0086 90.3114 92.2798
527 1 98.0086 90.3114 107.72
528 1 98.0086 92.2798 90.3114
529 1 98.0086 92.2798 109.689
530 1 98.0086 107.72 90.3114
531 1 98.0086 107.72 109.689
532 1 98.0086 109.689 92.2798
533 1 98.0086 109.689 107.72
534 1 101.991 90.3114 92.2798
535 1 101.991 90.3114 107.72
536 1 101.991 92.2798 90.3114
537 1 101.991 92.2798 109.689
538 1 101.991 107.72 90.3114
539 1 101.991 107.72 109.689
540 1 101.991 109.689 92.2798
541 1 101.991 109.689 107.72
542 1 107.72 98.0086 90.3114
543 1 107.72 98.0086 109.689
544 1 107.72 101.991 90.3114
545 1 107.72 101.991 109.689
546 1 109.689 98.0086 92.2798
547 1 109.689 98.0086 107.72
548 1 109.689 101.991 92.2798
549 1 109.689 101.991 107.72
550 1 90.5163 90.5163 100
551 1 90.5163 100 90.5163
552 1 90.5163 100 109.484
553 1 90.5163 109.484 100
554 1 100 90.5163 90.5163
555 1 100 90.5163 109.484
556 1 100 109.484 90.5163
557 1 100 109.484 109.484
558 1 109.484 90.5163 100
559 1 109.484 100 90.5163
560 1 109.484 100 109.484
561 1 109.484 109.484 100
562 1 88.2081 100 100
563 1 100 88.2081 100
564 1 100 100 88.2081
565 1 100 100 111.792
566 1 100 111.792 100
567 1 111.792 100 100
568 1 88.2214 98.0475 98.0475
569 1 88.2214 98.0475 101.952
570 1 88.2214 101.952 98.0475
571 1 88.2214 101.952 101.952
572 1 98.0475 88.2214 98.0475
573 1 98.0475 88.2214 101.952
574 1 98.0475 111.778 98.0475
575 1 98.0475 111.778 101.952
576 1 101.952 88.2214 98.0475
577 1 101.952 88.2214 101.952
578 1 101.952 111.778 98.0475
579 1 101.952 111.778 101.952
580 1 111.778 98.0475 98.0475
581 1 111.778 98.0475 101.952
582 1 111.778 101.952 98.0475
583 1 111.778 101.952 101.952
584 1 98.0475 98.0475 88.2214
585 1 98.0475 98.0475 111.778
586 1 98.0475 101.952 88.2214
587 1 98.0475 101.952 111.778
588 1 101.952 98.0475 88.2214
589 1 101.952 98.0475 111.778
590 1 101.952 101.952 88.2214
591 1 101.952 101.952 111.778
592 1 88.2338 96.0993 100
593 1 88.2338 100 96.0993
594 1 88.2338 100 103.901
595 1 88.2338 103.901 100
596 1 96.0993 88.2338 100
597 1 96.0993 100 88.2338
598 1 96.0993 100 111.766
599 1 96.0993 111.766 100
600 1 100 88.2338 96.0993
601 1 100 88.2338 103.901
602 1 100 96.0993 88.2338
603 1 100 96.0993 111.766
604 1 100 103.901 88.2338
605 1 100 103.901 111.766
606 1 100 111.766 96.0993
607 1 100 111.766 103.901
608 1 103.901 88.2338 100
609 1 103.901 100 88.2338
610 1 103.901 100 111.766
611 1 103.901 111.766 100
612 1 111.766 96.0993 100
613 1 111.766 100 96.0993
614 1 111.766 100 103.901
615 1 111.766 103.901 100
616 1 88.2915 96.0791 96.0791
617 1 88.2915 96.0791 103.921
618 1 88.2915 103.921 96.0791
619 1 88.2915 103.921 103.921
620 1 96.0791 88.2915 96.0791
621 1 96.0791 88.2915 103.921
622 1 96.0791 96.0791 88.2915
623 1 96.0791 96.0791 111.708
624 1 96.0791 103.921 88.2915
625 1 96.0791 103.921 111.708
626 1 96.0791 111.708 96.0791
627 1 96.0791 111.708 103.921
628 1 103.921 88.2915 96.0791
629 1 103.921 88.2915 103.921
630 1 103.921 96.0791 88.2915
631 1 103.921 96.0791 111.708
632 1 103.921 103.921 88.2915
633 1 103.921 103.921 111.708
634 1 103.921 111.708 96.0791
635 1 103.921 111.708 103.921
636 1 111.708 96.0791 96.0791
637 1 111.708 96.0791 103.921
638 1 111.708 103.921 96.0791
639 1 111.708 103.921 103.921
640 1 88.303 94.1518 98.0252
641 1 88.303 94.1518 101.975
642 1 88.303 98.0252 94.1518
643 1 88.303 98.0252 105.848
644 1 88.303 101.975 94.1518
645 1 88.303 101.975 105.848
646 1 88.303 105.848 98.0252
647 1 88.303 105.848 101.975
648 1 94.1518 88.303 98.0252
649 1 94.1518 88.303 101.975
650 1 94.1518 98.0252 88.303
651 1 94.1518 98.0252 111.697
652 1 94.1518 101.975 88.303
653 1 94.1518 101.975 111.697
654 1 94.1518 111.697 98.0252
655 1 94.1518 111.697 101.975
656 1 98.0252 88.303 94.1518
657 1 98.0252 88.303 105.848
658 1 98.0252 94.1518 88.303
659 1 98.0252 94.1518 111.697
660 1 98.0252 105.848 88.303
661 1 98.0252 105.848 111.697
662 1 98.0252 111.697 94.1518
663 1 98.0252 111.697 105.848
664 1 101.975 88.303 94.1518
665 1 101.975 88.303 105.848
666 1 101.975 94.1518 88.303
667 1 101.975 94.1518 111.697
668 1 101.975 105.848 88.303
669 1 101.975 105.848 111.697
670 1 101.975 111.697 94.1518
671 1 101.975 111.697 105.848
672 1 105.848 88.303 98.0252
673 1 105.848 88.303 101.975
674 1 105.848 98.0252 88.303
675 1 105.848 98.0252 111.697
676 1 105.848 101.975 88.303
677 1 105.848 101.975 111.697
678 1 105.848 111.697 98.0252
679 1 105.848 111.697 101.975
680 1 111.697 94.1518 98.0252
681 1 111.697 94.1518 101.975
682 1 111.697 98.0252 94.1518
683 1 111.697 98.0252 105.848
684 1 111.697 101.975 94.1518
685 1 111.697 101.975 105.848
686 1 111.697 105.848 98.0252
687 1 111.697 105.848 101.975
688 1 92.0659 92.0659 92.0659
689 1 92.0659 92.0659 107.934
690 1 92.0659 107.934 92.0659
691 1 92.0659 107.934 107.934
692 1 107.934 92.0659 92.0659
693 1 107.934 92.0659 107.934
694 1 107.934 107.934 92.0659
695 1 107.934 107.934 107.934
696 1 90.1752 92.0131 93.8841
697 1 90.1752 92.0131 106.116
698 1 90.1752 107.987 93.8841
699 1 90.1752 107.987 106.116
700 1 92.0131 90.1752 93.8841
701 1 92.0131 90.1752 106.116
702 1 92.0131 109.825 93.8841
703 1 92.0131 109.825 106.116
704 1 107.987 90.1752 93.8841
705 1 107.987 90.1752 106.116
706 1 107.987 109.825 93.8841
707 1 107.987 109.825 106.116
708 1 109.825 92.0131 93.8841
709 1 109.825 92.0131 106.116
710 1 109.825 107.987 93.8841
711 1 109.825 107.987 106.116
712 1 90.1752 93.8841 92.0131
713 1 90.1752 93.8841 107.987
714 1 90.1752 106.116 92.0131
715 1 90.1752 106.116 107.987
716 1 92.0131 93.8841 90.1752
717 1 92.0131 93.8841 109.825
718 1 92.0131 106.116 90.1752
719 1 92.0131 106.116 109.825
720 1 93.8841 90.1752 92.0131
721 1 93.8841 90.1752 107.987
722 1 93.8841 92.0131 90.1752
723 1 93.8841 92.0131 109.825
724 1 93.8841 107.987 90.1752
725 1 93.8841 107.987 109.825
726 1 93.8841 109.825 92.0131
727 1 93.8841 109.825 107.987
728 1 106.116 90.1752 92.0131
729 1 106.116 90.1752 107.987
730 1 106.116 92.0131 90.1752
731 1 106.116 92.0131 109.825
732 1 106.116 107.987 90.1752
733 1 106.116 107.987 109.825
734 1 106.116 109.825 92.0131
735 1 106.116 109.825 107.987
736 1 107.987 93.8841 90.1752
737 1 107.987 93.8841 109.825
738 1 107.987 106.116 90.1752
739 1 107.987 106.116 109.825
740 1 109.825 93.8841 92.0131
741 1 109.825 93.8841 107.987
742 1 109.825 106.116 92.0131
743 1 109.825 106.116 107.987
744 1 88.389 92.1986 100
745 1 88.389 100 92.1986
746 1 88.389 100 107.801
747 1 88.389 107.801 100
748 1 92.1986 88.389 100
749 1 92.1986 100 88.389
750 1 92.1986 100 111.611
751 1 92.1986 111.611 100
752 1 100 88.389 92.1986
753 1 100 88.389 107.801
754 1 100 92.1986 88.389
755 1 100 92.1986 111.611
756 1 100 107.801 88.389
757 1 100 107.801 111.611
758 1 100 111.611 92.1986
759 1 100 111.611 107.801
760 1 107.801 88.389 100
761 1 107.801 100 88.389
762 1 107.801 100 111.611
763 1 107.801 111.611 100
764 1 111.611 92.1986 100
765 1 111.611 100 92.1986
766 1 111.611 100 107.801
767 1 111.611 107.801 100
768 1 88.5516 94.0807 94.0807
769 1 88.5516 94.0807 105.919
770 1 88.5516 105.919 94.0807
771 1 88.5516 105.919 105.919
772 1 90.263 90.263 95.8015
773 1 90.263 90.263 104.198
774 1 90.263 95.8015 90.263
775 1 90.263 95.8015 109.737
776 1 90.263 104.198 90.263
777 1 90.263 104.198 109.737
778 1 90.263 109.737 95.8015
779 1 90.263 109.737 104.198
780 1 94.0807 88.5516 94.0807
781 1 94.0807 88.5516 105.919
782 1 94.0807 94.0807 88.5516
783 1 94.0807 94.0807 111.448
784 1 94.0807 105.919 88.5516
785 1 94.0807 105.919 111.448
786 1 94.0807 111.448 94.0807
787 1 94.0807 111.448 105.919
788 1 95.8015 90.263 90.263
789 1 95.8015 90.263 109.737
790 1 95.8015 109.737 90.263
791 1 95.8015 109.737 109.737
792 1 104.198 90.263 90.263
793 1 104.198 90.263 109.737
794 1 104.198 109.737 90.263
795 1 104.198 109.737 109.737
796 1 105.919 88.5516 94.0807
797 1 105.919 88.5516 105.919
798 1 105.919 94.0807 88.5516
799 1 105.919 94.0807 111.448
800 1 105.919 105.919 88.5516
801 1 105.919 105.919 111.448
802 1 105.919 111.448 94.0807
803 1 105.919 111.448 105.919
804 1 109.737 90.263 95.8015
805 1 109.737 90.263 104.198
806 1 109.737 95.8015 90.263
807 1 109.737 95.8015 109.737
808 1 109.737 104.198 90.263
809 1 109.737 104.198 109.737
810 1 109.737 109.737 95.8015
811 1 109.737 109.737 104.198
812 1 111.448 94.0807 94.0807
813 1 111.448 94.0807 105.919
814 1 111.448 105.919 94.0807
815 1 111.448 105.919 105.919
816 1 88.5379 92.2131 95.9772
817 1 88.5379 92.2131 104.023
818 1 88.5379 95.9772 92.2131
819 1 88.5379 95.9772 107.787
820 1 88.5379 104.023 92.2131
821 1 88.5379 104.023 107.787
822 1 88.5379 107.787 95.9772
823 1 88.5379 107.787 104.023
824 1 92.2131 88.5379 95.9772
825 1 92.2131 88.5379 104.023
826 1 92.2131 95.9772 88.5379
827 1 92.2131 95.9772 111.462
828 1 92.2131 104.023 88.5379
829 1 92.2131 104.023 111.462
830 1 92.2131 111.462 95.9772
831 1 92.2131 111.462 104.023
832 1 95.9772 88.5379 92.2131
833 1 95.9772 88.5379 107.787
834 1 95.9772 92.2131 88.5379
835 1 95.9772 92.2131 111.462
836 1 95.9772 107.787 88.5379
837 1 95.9772 107.787 111.462
838 1 95.9772 111.462 92.2131
839 1 95.9772 111.462 107.787
840 1 104.023 88.5379 92.2131
841 1 104.023 88.5379 107.787
842 1 104.023 92.2131 88.5379
843 1 104.023 92.2131 111.462
844 1 104.023 107.787 88.5379
845 1 104.023 107.787 111.462
846 1 104.023 111.462 92.2131
847 1 104.023 111.462 107.787
848 1 107.787 88.5379 95.9772
849 1 107.787 88.5379 104.023
850 1 107.787 95.9772 88.5379
851 1 107.787 95.9772 111.462
852 1 107.787 104.023 88.5379
853 1 107.787 104.023 111.462
854 1 107.787 111.462 95.9772
855 1 107.787 111.462 104.023
856 1 111.462 92.2131 95.9772
857 1 111.462 92.2131 104.023
858 1 111.462 95.9772 92.2131
859 1 111.462 95.9772 107.787
860 1 111.462 104.023 92.2131
861 1 111.462 104.023 107.787
862 1 111.462 107.787 95.9772
863 1 111.462 107.787 104.023
864 1 88.5315 97.894 90.3746
865 1 88.5315 97.894 109.625
866 1 88.5315 102.106 90.3746
867 1 88.5315 102.106 109.625
868 1 97.894 88.5315 90.3746
869 1 97.894 88.5315 109.625
870 1 97.894 111.468 90.3746
871 1 97.894 111.468 109.625
872 1 102.106 88.5315 90.3746
873 1 102.106 88.5315 109.625
874 1 102.106 111.468 90.3746
875 1 102.106 111.468 109.625
876 1 111.468 97.894 90.3746
877 1 111.468 97.894 109.625
878 1 111.468 102.106 90.3746
879 1 111.468 102.106 109.625
880 1 88.5315 90.3746 97.894
881 1 88.5315 90.3746 102.106
882 1 88.5315 109.625 97.894
883 1 88.5315 109.625 102.106
884 1 90.3746 88.5315 97.894
885 1 90.3746 88.5315 102.106
886 1 90.3746 97.894 88.5315
887 1 90.3746 97.894 111.468
888 1 90.3746 102.106 88.5315
889 1 90.3746 102.106 111.468
890 1 90.3746 111.468 97.894
891 1 90.3746 111.468 102.106
892 1 97.894 90.3746 88.5315
893 1 97.894 90.3746 111.468
894 1 97.894 109.625 88.5315
895 1 97.894 109.625 111.468
896 1 102.106 90.3746 88.5315
897 1 102.106 90.3746 111.468
898 1 102.106 109.625 88.5315
899 1 102.106 109.625 111.468
900 1 109.625 88.5315 97.894
901 1 109.625 88.5315 102.106
902 1 109.625 97.894 88.5315
903 1 109.625 97.894 111.468
904 1 109.625 102.106 88.5315
905 1 109.625 102.106 111.468
906 1 109.625 111.468 97.894
907 1 109.625 111.468 102.106
908 1 111.468 90.3746 97.894
909 1 111.468 90.3746 102.106
910 1 111.468 109.625 97.894
911 1 111.468 109.625 102.106
912 1 88.7706 88.7706 100
913 1 88.7706 100 88.7706
914 1 88.7706 100 111.229
915 1 88.7706 111.229 100
916 1 100 88.7706 88.7706
917 1 100 88.7706 111.229
918 1 100 111.229 88.7706
919 1 100 111.229 111.229
920 1 111.229 88.7706 100
921 1 111.229 100 88.7706
922 1 111.229 100 111.229
923 1 111.229 111.229 100
