 Start File for LAMMPS

 561 atoms

 1 atom types
 
  -0.0 100.0 xlo xhi
  -0.0 100.0 ylo yhi
  -0.0 100.0 zlo zhi
  
 Masses

 1  195.09
 
 Atoms

1 1 50 50 50
2 1 48.0532 48.0532 50
3 1 48.0532 50 48.0532
4 1 48.0532 50 51.9468
5 1 48.0532 51.9468 50
6 1 50 48.0532 48.0532
7 1 50 48.0532 51.9468
8 1 50 51.9468 48.0532
9 1 50 51.9468 51.9468
10 1 51.9468 48.0532 50
11 1 51.9468 50 48.0532
12 1 51.9468 50 51.9468
13 1 51.9468 51.9468 50
14 1 46.0943 50 50
15 1 50 46.0943 50
16 1 50 50 46.0943
17 1 50 50 53.9057
18 1 50 53.9057 50
19 1 53.9057 50 50
20 1 46.1015 48.051 48.051
21 1 46.1015 48.051 51.949
22 1 46.1015 51.949 48.051
23 1 46.1015 51.949 51.949
24 1 48.051 46.1015 48.051
25 1 48.051 46.1015 51.949
26 1 48.051 48.051 46.1015
27 1 48.051 48.051 53.8985
28 1 48.051 51.949 46.1015
29 1 48.051 51.949 53.8985
30 1 48.051 53.8985 48.051
31 1 48.051 53.8985 51.949
32 1 51.949 46.1015 48.051
33 1 51.949 46.1015 51.949
34 1 51.949 48.051 46.1015
35 1 51.949 48.051 53.8985
36 1 51.949 51.949 46.1015
37 1 51.949 51.949 53.8985
38 1 51.949 53.8985 48.051
39 1 51.949 53.8985 51.949
40 1 53.8985 48.051 48.051
41 1 53.8985 48.051 51.949
42 1 53.8985 51.949 48.051
43 1 53.8985 51.949 51.949
44 1 46.1213 46.1213 50
45 1 46.1213 50 46.1213
46 1 46.1213 50 53.8787
47 1 46.1213 53.8787 50
48 1 50 46.1213 46.1213
49 1 50 46.1213 53.8787
50 1 50 53.8787 46.1213
51 1 50 53.8787 53.8787
52 1 53.8787 46.1213 50
53 1 53.8787 50 46.1213
54 1 53.8787 50 53.8787
55 1 53.8787 53.8787 50
56 1 44.1318 48.0615 50
57 1 44.1318 50 48.0615
58 1 44.1318 50 51.9385
59 1 44.1318 51.9385 50
60 1 48.0615 44.1318 50
61 1 48.0615 50 44.1318
62 1 48.0615 50 55.8682
63 1 48.0615 55.8682 50
64 1 50 44.1318 48.0615
65 1 50 44.1318 51.9385
66 1 50 48.0615 44.1318
67 1 50 48.0615 55.8682
68 1 50 51.9385 44.1318
69 1 50 51.9385 55.8682
70 1 50 55.8682 48.0615
71 1 50 55.8682 51.9385
72 1 51.9385 44.1318 50
73 1 51.9385 50 44.1318
74 1 51.9385 50 55.8682
75 1 51.9385 55.8682 50
76 1 55.8682 48.0615 50
77 1 55.8682 50 48.0615
78 1 55.8682 50 51.9385
79 1 55.8682 51.9385 50
80 1 46.0707 46.0707 46.0707
81 1 46.0707 46.0707 53.9293
82 1 46.0707 53.9293 46.0707
83 1 46.0707 53.9293 53.9293
84 1 53.9293 46.0707 46.0707
85 1 53.9293 46.0707 53.9293
86 1 53.9293 53.9293 46.0707
87 1 53.9293 53.9293 53.9293
88 1 44.1658 46.1127 48.0328
89 1 44.1658 46.1127 51.9672
90 1 44.1658 48.0328 46.1127
91 1 44.1658 48.0328 53.8873
92 1 44.1658 51.9672 46.1127
93 1 44.1658 51.9672 53.8873
94 1 44.1658 53.8873 48.0328
95 1 44.1658 53.8873 51.9672
96 1 46.1127 44.1658 48.0328
97 1 46.1127 44.1658 51.9672
98 1 46.1127 48.0328 44.1658
99 1 46.1127 48.0328 55.8342
100 1 46.1127 51.9672 44.1658
101 1 46.1127 51.9672 55.8342
102 1 46.1127 55.8342 48.0328
103 1 46.1127 55.8342 51.9672
104 1 48.0328 44.1658 46.1127
105 1 48.0328 44.1658 53.8873
106 1 48.0328 46.1127 44.1658
107 1 48.0328 46.1127 55.8342
108 1 48.0328 53.8873 44.1658
109 1 48.0328 53.8873 55.8342
110 1 48.0328 55.8342 46.1127
111 1 48.0328 55.8342 53.8873
112 1 51.9672 44.1658 46.1127
113 1 51.9672 44.1658 53.8873
114 1 51.9672 46.1127 44.1658
115 1 51.9672 46.1127 55.8342
116 1 51.9672 53.8873 44.1658
117 1 51.9672 53.8873 55.8342
118 1 51.9672 55.8342 46.1127
119 1 51.9672 55.8342 53.8873
120 1 53.8873 44.1658 48.0328
121 1 53.8873 44.1658 51.9672
122 1 53.8873 48.0328 44.1658
123 1 53.8873 48.0328 55.8342
124 1 53.8873 51.9672 44.1658
125 1 53.8873 51.9672 55.8342
126 1 53.8873 55.8342 48.0328
127 1 53.8873 55.8342 51.9672
128 1 55.8342 46.1127 48.0328
129 1 55.8342 46.1127 51.9672
130 1 55.8342 48.0328 46.1127
131 1 55.8342 48.0328 53.8873
132 1 55.8342 51.9672 46.1127
133 1 55.8342 51.9672 53.8873
134 1 55.8342 53.8873 48.0328
135 1 55.8342 53.8873 51.9672
136 1 44.2396 44.2396 50
137 1 44.2396 50 44.2396
138 1 44.2396 50 55.7604
139 1 44.2396 55.7604 50
140 1 50 44.2396 44.2396
141 1 50 44.2396 55.7604
142 1 50 55.7604 44.2396
143 1 50 55.7604 55.7604
144 1 55.7604 44.2396 50
145 1 55.7604 50 44.2396
146 1 55.7604 50 55.7604
147 1 55.7604 55.7604 50
148 1 42.1226 50 50
149 1 50 42.1226 50
150 1 50 50 42.1226
151 1 50 50 57.8774
152 1 50 57.8774 50
153 1 57.8774 50 50
154 1 42.1463 48.0739 48.0739
155 1 42.1463 48.0739 51.9261
156 1 42.1463 51.9261 48.0739
157 1 42.1463 51.9261 51.9261
158 1 48.0739 42.1463 48.0739
159 1 48.0739 42.1463 51.9261
160 1 48.0739 48.0739 42.1463
161 1 48.0739 48.0739 57.8537
162 1 48.0739 51.9261 42.1463
163 1 48.0739 51.9261 57.8537
164 1 48.0739 57.8537 48.0739
165 1 48.0739 57.8537 51.9261
166 1 51.9261 42.1463 48.0739
167 1 51.9261 42.1463 51.9261
168 1 51.9261 48.0739 42.1463
169 1 51.9261 48.0739 57.8537
170 1 51.9261 51.9261 42.1463
171 1 51.9261 51.9261 57.8537
172 1 51.9261 57.8537 48.0739
173 1 51.9261 57.8537 51.9261
174 1 57.8537 48.0739 48.0739
175 1 57.8537 48.0739 51.9261
176 1 57.8537 51.9261 48.0739
177 1 57.8537 51.9261 51.9261
178 1 42.1676 46.1542 50
179 1 42.1676 50 46.1542
180 1 42.1676 50 53.8458
181 1 42.1676 53.8458 50
182 1 46.1542 42.1676 50
183 1 46.1542 50 42.1676
184 1 46.1542 50 57.8324
185 1 46.1542 57.8324 50
186 1 50 42.1676 46.1542
187 1 50 42.1676 53.8458
188 1 50 46.1542 42.1676
189 1 50 46.1542 57.8324
190 1 50 53.8458 42.1676
191 1 50 53.8458 57.8324
192 1 50 57.8324 46.1542
193 1 50 57.8324 53.8458
194 1 53.8458 42.1676 50
195 1 53.8458 50 42.1676
196 1 53.8458 50 57.8324
197 1 53.8458 57.8324 50
198 1 57.8324 46.1542 50
199 1 57.8324 50 46.1542
200 1 57.8324 50 53.8458
201 1 57.8324 53.8458 50
202 1 44.0843 44.0843 46.0347
203 1 44.0843 44.0843 53.9653
204 1 44.0843 46.0347 44.0843
205 1 44.0843 46.0347 55.9157
206 1 44.0843 53.9653 44.0843
207 1 44.0843 53.9653 55.9157
208 1 44.0843 55.9157 46.0347
209 1 44.0843 55.9157 53.9653
210 1 46.0347 44.0843 44.0843
211 1 46.0347 44.0843 55.9157
212 1 46.0347 55.9157 44.0843
213 1 46.0347 55.9157 55.9157
214 1 53.9653 44.0843 44.0843
215 1 53.9653 44.0843 55.9157
216 1 53.9653 55.9157 44.0843
217 1 53.9653 55.9157 55.9157
218 1 55.9157 44.0843 46.0347
219 1 55.9157 44.0843 53.9653
220 1 55.9157 46.0347 44.0843
221 1 55.9157 46.0347 55.9157
222 1 55.9157 53.9653 44.0843
223 1 55.9157 53.9653 55.9157
224 1 55.9157 55.9157 46.0347
225 1 55.9157 55.9157 53.9653
226 1 42.2357 46.1218 46.1218
227 1 42.2357 46.1218 53.8782
228 1 42.2357 53.8782 46.1218
229 1 42.2357 53.8782 53.8782
230 1 46.1218 42.2357 46.1218
231 1 46.1218 42.2357 53.8782
232 1 46.1218 46.1218 42.2357
233 1 46.1218 46.1218 57.7643
234 1 46.1218 53.8782 42.2357
235 1 46.1218 53.8782 57.7643
236 1 46.1218 57.7643 46.1218
237 1 46.1218 57.7643 53.8782
238 1 53.8782 42.2357 46.1218
239 1 53.8782 42.2357 53.8782
240 1 53.8782 46.1218 42.2357
241 1 53.8782 46.1218 57.7643
242 1 53.8782 53.8782 42.2357
243 1 53.8782 53.8782 57.7643
244 1 53.8782 57.7643 46.1218
245 1 53.8782 57.7643 53.8782
246 1 57.7643 46.1218 46.1218
247 1 57.7643 46.1218 53.8782
248 1 57.7643 53.8782 46.1218
249 1 57.7643 53.8782 53.8782
250 1 42.2449 44.2151 48.0257
251 1 42.2449 44.2151 51.9743
252 1 42.2449 48.0257 44.2151
253 1 42.2449 48.0257 55.7849
254 1 42.2449 51.9743 44.2151
255 1 42.2449 51.9743 55.7849
256 1 42.2449 55.7849 48.0257
257 1 42.2449 55.7849 51.9743
258 1 44.2151 42.2449 48.0257
259 1 44.2151 42.2449 51.9743
260 1 44.2151 48.0257 42.2449
261 1 44.2151 48.0257 57.7551
262 1 44.2151 51.9743 42.2449
263 1 44.2151 51.9743 57.7551
264 1 44.2151 57.7551 48.0257
265 1 44.2151 57.7551 51.9743
266 1 48.0257 42.2449 44.2151
267 1 48.0257 42.2449 55.7849
268 1 48.0257 44.2151 42.2449
269 1 48.0257 44.2151 57.7551
270 1 48.0257 55.7849 42.2449
271 1 48.0257 55.7849 57.7551
272 1 48.0257 57.7551 44.2151
273 1 48.0257 57.7551 55.7849
274 1 51.9743 42.2449 44.2151
275 1 51.9743 42.2449 55.7849
276 1 51.9743 44.2151 42.2449
277 1 51.9743 44.2151 57.7551
278 1 51.9743 55.7849 42.2449
279 1 51.9743 55.7849 57.7551
280 1 51.9743 57.7551 44.2151
281 1 51.9743 57.7551 55.7849
282 1 55.7849 42.2449 48.0257
283 1 55.7849 42.2449 51.9743
284 1 55.7849 48.0257 42.2449
285 1 55.7849 48.0257 57.7551
286 1 55.7849 51.9743 42.2449
287 1 55.7849 51.9743 57.7551
288 1 55.7849 57.7551 48.0257
289 1 55.7849 57.7551 51.9743
290 1 57.7551 44.2151 48.0257
291 1 57.7551 44.2151 51.9743
292 1 57.7551 48.0257 44.2151
293 1 57.7551 48.0257 55.7849
294 1 57.7551 51.9743 44.2151
295 1 57.7551 51.9743 55.7849
296 1 57.7551 55.7849 48.0257
297 1 57.7551 55.7849 51.9743
298 1 42.4392 42.4392 50
299 1 42.4392 50 42.4392
300 1 42.4392 50 57.5608
301 1 42.4392 57.5608 50
302 1 50 42.4392 42.4392
303 1 50 42.4392 57.5608
304 1 50 57.5608 42.4392
305 1 50 57.5608 57.5608
306 1 57.5608 42.4392 50
307 1 57.5608 50 42.4392
308 1 57.5608 50 57.5608
309 1 57.5608 57.5608 50
310 1 40.1759 48.0489 50
311 1 40.1759 50 48.0489
312 1 40.1759 50 51.9511
313 1 40.1759 51.9511 50
314 1 48.0489 40.1759 50
315 1 48.0489 50 40.1759
316 1 48.0489 50 59.8241
317 1 48.0489 59.8241 50
318 1 50 40.1759 48.0489
319 1 50 40.1759 51.9511
320 1 50 48.0489 40.1759
321 1 50 48.0489 59.8241
322 1 50 51.9511 40.1759
323 1 50 51.9511 59.8241
324 1 50 59.8241 48.0489
325 1 50 59.8241 51.9511
326 1 51.9511 40.1759 50
327 1 51.9511 50 40.1759
328 1 51.9511 50 59.8241
329 1 51.9511 59.8241 50
330 1 59.8241 48.0489 50
331 1 59.8241 50 48.0489
332 1 59.8241 50 51.9511
333 1 59.8241 51.9511 50
334 1 40.2324 46.0975 48.0406
335 1 40.2324 46.0975 51.9594
336 1 40.2324 48.0406 46.0975
337 1 40.2324 48.0406 53.9025
338 1 40.2324 51.9594 46.0975
339 1 40.2324 51.9594 53.9025
340 1 40.2324 53.9025 48.0406
341 1 40.2324 53.9025 51.9594
342 1 46.0975 40.2324 48.0406
343 1 46.0975 40.2324 51.9594
344 1 46.0975 48.0406 40.2324
345 1 46.0975 48.0406 59.7676
346 1 46.0975 51.9594 40.2324
347 1 46.0975 51.9594 59.7676
348 1 46.0975 59.7676 48.0406
349 1 46.0975 59.7676 51.9594
350 1 48.0406 40.2324 46.0975
351 1 48.0406 40.2324 53.9025
352 1 48.0406 46.0975 40.2324
353 1 48.0406 46.0975 59.7676
354 1 48.0406 53.9025 40.2324
355 1 48.0406 53.9025 59.7676
356 1 48.0406 59.7676 46.0975
357 1 48.0406 59.7676 53.9025
358 1 51.9594 40.2324 46.0975
359 1 51.9594 40.2324 53.9025
360 1 51.9594 46.0975 40.2324
361 1 51.9594 46.0975 59.7676
362 1 51.9594 53.9025 40.2324
363 1 51.9594 53.9025 59.7676
364 1 51.9594 59.7676 46.0975
365 1 51.9594 59.7676 53.9025
366 1 53.9025 40.2324 48.0406
367 1 53.9025 40.2324 51.9594
368 1 53.9025 48.0406 40.2324
369 1 53.9025 48.0406 59.7676
370 1 53.9025 51.9594 40.2324
371 1 53.9025 51.9594 59.7676
372 1 53.9025 59.7676 48.0406
373 1 53.9025 59.7676 51.9594
374 1 59.7676 46.0975 48.0406
375 1 59.7676 46.0975 51.9594
376 1 59.7676 48.0406 46.0975
377 1 59.7676 48.0406 53.9025
378 1 59.7676 51.9594 46.0975
379 1 59.7676 51.9594 53.9025
380 1 59.7676 53.9025 48.0406
381 1 59.7676 53.9025 51.9594
382 1 40.3101 44.1336 50
383 1 40.3101 50 44.1336
384 1 40.3101 50 55.8664
385 1 40.3101 55.8664 50
386 1 42.1293 43.9803 43.9803
387 1 42.1293 43.9803 56.0197
388 1 42.1293 56.0197 43.9803
389 1 42.1293 56.0197 56.0197
390 1 44.1336 40.3101 50
391 1 43.9803 42.1293 43.9803
392 1 43.9803 42.1293 56.0197
393 1 43.9803 43.9803 42.1293
394 1 43.9803 43.9803 57.8707
395 1 44.1336 50 40.3101
396 1 44.1336 50 59.6899
397 1 43.9803 56.0197 42.1293
398 1 43.9803 56.0197 57.8707
399 1 43.9803 57.8707 43.9803
400 1 43.9803 57.8707 56.0197
401 1 44.1336 59.6899 50
402 1 50 40.3101 44.1336
403 1 50 40.3101 55.8664
404 1 50 44.1336 40.3101
405 1 50 44.1336 59.6899
406 1 50 55.8664 40.3101
407 1 50 55.8664 59.6899
408 1 50 59.6899 44.1336
409 1 50 59.6899 55.8664
410 1 55.8664 40.3101 50
411 1 56.0197 42.1293 43.9803
412 1 56.0197 42.1293 56.0197
413 1 56.0197 43.9803 42.1293
414 1 56.0197 43.9803 57.8707
415 1 55.8664 50 40.3101
416 1 55.8664 50 59.6899
417 1 56.0197 56.0197 42.1293
418 1 56.0197 56.0197 57.8707
419 1 56.0197 57.8707 43.9803
420 1 56.0197 57.8707 56.0197
421 1 55.8664 59.6899 50
422 1 57.8707 43.9803 43.9803
423 1 57.8707 43.9803 56.0197
424 1 57.8707 56.0197 43.9803
425 1 57.8707 56.0197 56.0197
426 1 59.6899 44.1336 50
427 1 59.6899 50 44.1336
428 1 59.6899 50 55.8664
429 1 59.6899 55.8664 50
430 1 42.1006 42.1006 45.8332
431 1 42.1006 42.1006 54.1668
432 1 42.1006 45.8332 42.1006
433 1 42.1006 45.8332 57.8994
434 1 42.1006 54.1668 42.1006
435 1 42.1006 54.1668 57.8994
436 1 42.1006 57.8994 45.8332
437 1 42.1006 57.8994 54.1668
438 1 45.8332 42.1006 42.1006
439 1 45.8332 42.1006 57.8994
440 1 45.8332 57.8994 42.1006
441 1 45.8332 57.8994 57.8994
442 1 54.1668 42.1006 42.1006
443 1 54.1668 42.1006 57.8994
444 1 54.1668 57.8994 42.1006
445 1 54.1668 57.8994 57.8994
446 1 57.8994 42.1006 45.8332
447 1 57.8994 42.1006 54.1668
448 1 57.8994 45.8332 42.1006
449 1 57.8994 45.8332 57.8994
450 1 57.8994 54.1668 42.1006
451 1 57.8994 54.1668 57.8994
452 1 57.8994 57.8994 45.8332
453 1 57.8994 57.8994 54.1668
454 1 40.4559 44.1401 46.0241
455 1 40.4559 44.1401 53.9759
456 1 40.4559 46.0241 44.1401
457 1 40.4559 46.0241 55.8599
458 1 40.4559 53.9759 44.1401
459 1 40.4559 53.9759 55.8599
460 1 40.4559 55.8599 46.0241
461 1 40.4559 55.8599 53.9759
462 1 44.1401 40.4559 46.0241
463 1 44.1401 40.4559 53.9759
464 1 44.1401 46.0241 40.4559
465 1 44.1401 46.0241 59.5441
466 1 44.1401 53.9759 40.4559
467 1 44.1401 53.9759 59.5441
468 1 44.1401 59.5441 46.0241
469 1 44.1401 59.5441 53.9759
470 1 46.0241 40.4559 44.1401
471 1 46.0241 40.4559 55.8599
472 1 46.0241 44.1401 40.4559
473 1 46.0241 44.1401 59.5441
474 1 46.0241 55.8599 40.4559
475 1 46.0241 55.8599 59.5441
476 1 46.0241 59.5441 44.1401
477 1 46.0241 59.5441 55.8599
478 1 53.9759 40.4559 44.1401
479 1 53.9759 40.4559 55.8599
480 1 53.9759 44.1401 40.4559
481 1 53.9759 44.1401 59.5441
482 1 53.9759 55.8599 40.4559
483 1 53.9759 55.8599 59.5441
484 1 53.9759 59.5441 44.1401
485 1 53.9759 59.5441 55.8599
486 1 55.8599 40.4559 46.0241
487 1 55.8599 40.4559 53.9759
488 1 55.8599 46.0241 40.4559
489 1 55.8599 46.0241 59.5441
490 1 55.8599 53.9759 40.4559
491 1 55.8599 53.9759 59.5441
492 1 55.8599 59.5441 46.0241
493 1 55.8599 59.5441 53.9759
494 1 59.5441 44.1401 46.0241
495 1 59.5441 44.1401 53.9759
496 1 59.5441 46.0241 44.1401
497 1 59.5441 46.0241 55.8599
498 1 59.5441 53.9759 44.1401
499 1 59.5441 53.9759 55.8599
500 1 59.5441 55.8599 46.0241
501 1 59.5441 55.8599 53.9759
502 1 40.4436 42.2981 47.9166
503 1 40.4436 42.2981 52.0834
504 1 40.4436 57.7019 47.9166
505 1 40.4436 57.7019 52.0834
506 1 42.2981 40.4436 47.9166
507 1 42.2981 40.4436 52.0834
508 1 42.2981 59.5564 47.9166
509 1 42.2981 59.5564 52.0834
510 1 57.7019 40.4436 47.9166
511 1 57.7019 40.4436 52.0834
512 1 57.7019 59.5564 47.9166
513 1 57.7019 59.5564 52.0834
514 1 59.5564 42.2981 47.9166
515 1 59.5564 42.2981 52.0834
516 1 59.5564 57.7019 47.9166
517 1 59.5564 57.7019 52.0834
518 1 40.4436 47.9166 42.2981
519 1 40.4436 47.9166 57.7019
520 1 40.4436 52.0834 42.2981
521 1 40.4436 52.0834 57.7019
522 1 42.2981 47.9166 40.4436
523 1 42.2981 47.9166 59.5564
524 1 42.2981 52.0834 40.4436
525 1 42.2981 52.0834 59.5564
526 1 47.9166 40.4436 42.2981
527 1 47.9166 40.4436 57.7019
528 1 47.9166 42.2981 40.4436
529 1 47.9166 42.2981 59.5564
530 1 47.9166 57.7019 40.4436
531 1 47.9166 57.7019 59.5564
532 1 47.9166 59.5564 42.2981
533 1 47.9166 59.5564 57.7019
534 1 52.0834 40.4436 42.2981
535 1 52.0834 40.4436 57.7019
536 1 52.0834 42.2981 40.4436
537 1 52.0834 42.2981 59.5564
538 1 52.0834 57.7019 40.4436
539 1 52.0834 57.7019 59.5564
540 1 52.0834 59.5564 42.2981
541 1 52.0834 59.5564 57.7019
542 1 57.7019 47.9166 40.4436
543 1 57.7019 47.9166 59.5564
544 1 57.7019 52.0834 40.4436
545 1 57.7019 52.0834 59.5564
546 1 59.5564 47.9166 42.2981
547 1 59.5564 47.9166 57.7019
548 1 59.5564 52.0834 42.2981
549 1 59.5564 52.0834 57.7019
550 1 40.6932 40.6932 50
551 1 40.6932 50 40.6932
552 1 40.6932 50 59.3068
553 1 40.6932 59.3068 50
554 1 50 40.6932 40.6932
555 1 50 40.6932 59.3068
556 1 50 59.3068 40.6932
557 1 50 59.3068 59.3068
558 1 59.3068 40.6932 50
559 1 59.3068 50 40.6932
560 1 59.3068 50 59.3068
561 1 59.3068 59.3068 50

