 Start File for LAMMPS

 923 atoms

 1 atom types
 
  -0.0 200.0 xlo xhi
  -0.0 200.0 ylo yhi
  -0.0 200.0 zlo zhi
  
 Masses

 1  XXX
 
 Atoms

1	1	100.0000	100.0000	100.0000
2	1	97.9741	97.9741	100.0000
3	1	97.9741	100.0000	97.9741
4	1	97.9741	100.0000	102.0260
5	1	97.9741	102.0260	100.0000
6	1	100.0000	97.9741	97.9741
7	1	100.0000	97.9741	102.0260
8	1	100.0000	102.0260	97.9741
9	1	100.0000	102.0260	102.0260
10	1	102.0260	97.9741	100.0000
11	1	102.0260	100.0000	97.9741
12	1	102.0260	100.0000	102.0260
13	1	102.0260	102.0260	100.0000
14	1	95.9337	100.0000	100.0000
15	1	100.0000	95.9337	100.0000
16	1	100.0000	100.0000	95.9337
17	1	100.0000	100.0000	104.0660
18	1	100.0000	104.0660	100.0000
19	1	104.0660	100.0000	100.0000
20	1	95.9426	97.9761	97.9761
21	1	95.9426	97.9761	102.0240
22	1	95.9426	102.0240	97.9761
23	1	95.9426	102.0240	102.0240
24	1	97.9761	95.9426	97.9761
25	1	97.9761	95.9426	102.0240
26	1	97.9761	97.9761	95.9426
27	1	97.9761	97.9761	104.0570
28	1	97.9761	102.0240	95.9426
29	1	97.9761	102.0240	104.0570
30	1	97.9761	104.0570	97.9761
31	1	97.9761	104.0570	102.0240
32	1	102.0240	95.9426	97.9761
33	1	102.0240	95.9426	102.0240
34	1	102.0240	97.9761	95.9426
35	1	102.0240	97.9761	104.0570
36	1	102.0240	102.0240	95.9426
37	1	102.0240	102.0240	104.0570
38	1	102.0240	104.0570	97.9761
39	1	102.0240	104.0570	102.0240
40	1	104.0570	97.9761	97.9761
41	1	104.0570	97.9761	102.0240
42	1	104.0570	102.0240	97.9761
43	1	104.0570	102.0240	102.0240
44	1	95.9528	95.9528	100.0000
45	1	95.9528	100.0000	95.9528
46	1	95.9528	100.0000	104.0470
47	1	95.9528	104.0470	100.0000
48	1	100.0000	95.9528	95.9528
49	1	100.0000	95.9528	104.0470
50	1	100.0000	104.0470	95.9528
51	1	100.0000	104.0470	104.0470
52	1	104.0470	95.9528	100.0000
53	1	104.0470	100.0000	95.9528
54	1	104.0470	100.0000	104.0470
55	1	104.0470	104.0470	100.0000
56	1	93.8916	97.9790	100.0000
57	1	93.8916	100.0000	97.9790
58	1	93.8916	100.0000	102.0210
59	1	93.8916	102.0210	100.0000
60	1	97.9790	93.8916	100.0000
61	1	97.9790	100.0000	93.8916
62	1	97.9790	100.0000	106.1080
63	1	97.9790	106.1080	100.0000
64	1	100.0000	93.8916	97.9790
65	1	100.0000	93.8916	102.0210
66	1	100.0000	97.9790	93.8916
67	1	100.0000	97.9790	106.1080
68	1	100.0000	102.0210	93.8916
69	1	100.0000	102.0210	106.1080
70	1	100.0000	106.1080	97.9790
71	1	100.0000	106.1080	102.0210
72	1	102.0210	93.8916	100.0000
73	1	102.0210	100.0000	93.8916
74	1	102.0210	100.0000	106.1080
75	1	102.0210	106.1080	100.0000
76	1	106.1080	97.9790	100.0000
77	1	106.1080	100.0000	97.9790
78	1	106.1080	100.0000	102.0210
79	1	106.1080	102.0210	100.0000
80	1	95.9442	95.9442	95.9442
81	1	95.9442	95.9442	104.0560
82	1	95.9442	104.0560	95.9442
83	1	95.9442	104.0560	104.0560
84	1	104.0560	95.9442	95.9442
85	1	104.0560	95.9442	104.0560
86	1	104.0560	104.0560	95.9442
87	1	104.0560	104.0560	104.0560
88	1	93.9140	95.9570	97.9768
89	1	93.9140	95.9570	102.0230
90	1	93.9140	97.9768	95.9570
91	1	93.9140	97.9768	104.0430
92	1	93.9140	102.0230	95.9570
93	1	93.9140	102.0230	104.0430
94	1	93.9140	104.0430	97.9768
95	1	93.9140	104.0430	102.0230
96	1	95.9570	93.9140	97.9768
97	1	95.9570	93.9140	102.0230
98	1	95.9570	97.9768	93.9140
99	1	95.9570	97.9768	106.0860
100	1	95.9570	102.0230	93.9140
101	1	95.9570	102.0230	106.0860
102	1	95.9570	106.0860	97.9768
103	1	95.9570	106.0860	102.0230
104	1	97.9768	93.9140	95.9570
105	1	97.9768	93.9140	104.0430
106	1	97.9768	95.9570	93.9140
107	1	97.9768	95.9570	106.0860
108	1	97.9768	104.0430	93.9140
109	1	97.9768	104.0430	106.0860
110	1	97.9768	106.0860	95.9570
111	1	97.9768	106.0860	104.0430
112	1	102.0230	93.9140	95.9570
113	1	102.0230	93.9140	104.0430
114	1	102.0230	95.9570	93.9140
115	1	102.0230	95.9570	106.0860
116	1	102.0230	104.0430	93.9140
117	1	102.0230	104.0430	106.0860
118	1	102.0230	106.0860	95.9570
119	1	102.0230	106.0860	104.0430
120	1	104.0430	93.9140	97.9768
121	1	104.0430	93.9140	102.0230
122	1	104.0430	97.9768	93.9140
123	1	104.0430	97.9768	106.0860
124	1	104.0430	102.0230	93.9140
125	1	104.0430	102.0230	106.0860
126	1	104.0430	106.0860	97.9768
127	1	104.0430	106.0860	102.0230
128	1	106.0860	95.9570	97.9768
129	1	106.0860	95.9570	102.0230
130	1	106.0860	97.9768	95.9570
131	1	106.0860	97.9768	104.0430
132	1	106.0860	102.0230	95.9570
133	1	106.0860	102.0230	104.0430
134	1	106.0860	104.0430	97.9768
135	1	106.0860	104.0430	102.0230
136	1	91.8367	100.0000	100.0000
137	1	100.0000	91.8367	100.0000
138	1	100.0000	100.0000	91.8367
139	1	100.0000	100.0000	108.1630
140	1	100.0000	108.1630	100.0000
141	1	108.1630	100.0000	100.0000
142	1	91.8486	97.9791	97.9791
143	1	91.8486	97.9791	102.0210
144	1	91.8486	102.0210	97.9791
145	1	91.8486	102.0210	102.0210
146	1	93.9392	93.9392	100.0000
147	1	93.9392	100.0000	93.9392
148	1	93.9392	100.0000	106.0610
149	1	93.9392	106.0610	100.0000
150	1	97.9791	91.8486	97.9791
151	1	97.9791	91.8486	102.0210
152	1	97.9791	97.9791	91.8486
153	1	97.9791	97.9791	108.1510
154	1	97.9791	102.0210	91.8486
155	1	97.9791	102.0210	108.1510
156	1	97.9791	108.1510	97.9791
157	1	97.9791	108.1510	102.0210
158	1	100.0000	93.9392	93.9392
159	1	100.0000	93.9392	106.0610
160	1	100.0000	106.0610	93.9392
161	1	100.0000	106.0610	106.0610
162	1	102.0210	91.8486	97.9791
163	1	102.0210	91.8486	102.0210
164	1	102.0210	97.9791	91.8486
165	1	102.0210	97.9791	108.1510
166	1	102.0210	102.0210	91.8486
167	1	102.0210	102.0210	108.1510
168	1	102.0210	108.1510	97.9791
169	1	102.0210	108.1510	102.0210
170	1	106.0610	93.9392	100.0000
171	1	106.0610	100.0000	93.9392
172	1	106.0610	100.0000	106.0610
173	1	106.0610	106.0610	100.0000
174	1	108.1510	97.9791	97.9791
175	1	108.1510	97.9791	102.0210
176	1	108.1510	102.0210	97.9791
177	1	108.1510	102.0210	102.0210
178	1	91.8602	95.9603	100.0000
179	1	91.8602	100.0000	95.9603
180	1	91.8602	100.0000	104.0400
181	1	91.8602	104.0400	100.0000
182	1	95.9603	91.8602	100.0000
183	1	95.9603	100.0000	91.8602
184	1	95.9603	100.0000	108.1400
185	1	95.9603	108.1400	100.0000
186	1	100.0000	91.8602	95.9603
187	1	100.0000	91.8602	104.0400
188	1	100.0000	95.9603	91.8602
189	1	100.0000	95.9603	108.1400
190	1	100.0000	104.0400	91.8602
191	1	100.0000	104.0400	108.1400
192	1	100.0000	108.1400	95.9603
193	1	100.0000	108.1400	104.0400
194	1	104.0400	91.8602	100.0000
195	1	104.0400	100.0000	91.8602
196	1	104.0400	100.0000	108.1400
197	1	104.0400	108.1400	100.0000
198	1	108.1400	95.9603	100.0000
199	1	108.1400	100.0000	95.9603
200	1	108.1400	100.0000	104.0400
201	1	108.1400	104.0400	100.0000
202	1	93.9156	93.9156	95.9429
203	1	93.9156	93.9156	104.0570
204	1	93.9156	95.9429	93.9156
205	1	93.9156	95.9429	106.0840
206	1	93.9156	104.0570	93.9156
207	1	93.9156	104.0570	106.0840
208	1	93.9156	106.0840	95.9429
209	1	93.9156	106.0840	104.0570
210	1	95.9429	93.9156	93.9156
211	1	95.9429	93.9156	106.0840
212	1	95.9429	106.0840	93.9156
213	1	95.9429	106.0840	106.0840
214	1	104.0570	93.9156	93.9156
215	1	104.0570	93.9156	106.0840
216	1	104.0570	106.0840	93.9156
217	1	104.0570	106.0840	106.0840
218	1	106.0840	93.9156	95.9429
219	1	106.0840	93.9156	104.0570
220	1	106.0840	95.9429	93.9156
221	1	106.0840	95.9429	106.0840
222	1	106.0840	104.0570	93.9156
223	1	106.0840	104.0570	106.0840
224	1	106.0840	106.0840	95.9429
225	1	106.0840	106.0840	104.0570
226	1	91.8906	95.9589	95.9589
227	1	91.8906	95.9589	104.0410
228	1	91.8906	104.0410	95.9589
229	1	91.8906	104.0410	104.0410
230	1	95.9589	91.8906	95.9589
231	1	95.9589	91.8906	104.0410
232	1	95.9589	95.9589	91.8906
233	1	95.9589	95.9589	108.1090
234	1	95.9589	104.0410	91.8906
235	1	95.9589	104.0410	108.1090
236	1	95.9589	108.1090	95.9589
237	1	95.9589	108.1090	104.0410
238	1	104.0410	91.8906	95.9589
239	1	104.0410	91.8906	104.0410
240	1	104.0410	95.9589	91.8906
241	1	104.0410	95.9589	108.1090
242	1	104.0410	104.0410	91.8906
243	1	104.0410	104.0410	108.1090
244	1	104.0410	108.1090	95.9589
245	1	104.0410	108.1090	104.0410
246	1	108.1090	95.9589	95.9589
247	1	108.1090	95.9589	104.0410
248	1	108.1090	104.0410	95.9589
249	1	108.1090	104.0410	104.0410
250	1	89.7574	97.9786	100.0000
251	1	89.7574	100.0000	97.9786
252	1	89.7574	100.0000	102.0210
253	1	89.7574	102.0210	100.0000
254	1	91.9013	93.9429	97.9776
255	1	91.9013	93.9429	102.0220
256	1	91.9013	97.9776	93.9429
257	1	91.9013	97.9776	106.0570
258	1	91.9013	102.0220	93.9429
259	1	91.9013	102.0220	106.0570
260	1	91.9013	106.0570	97.9776
261	1	91.9013	106.0570	102.0220
262	1	93.9429	91.9013	97.9776
263	1	93.9429	91.9013	102.0220
264	1	93.9429	97.9776	91.9013
265	1	93.9429	97.9776	108.0990
266	1	93.9429	102.0220	91.9013
267	1	93.9429	102.0220	108.0990
268	1	93.9429	108.0990	97.9776
269	1	93.9429	108.0990	102.0220
270	1	97.9786	89.7574	100.0000
271	1	97.9776	91.9013	93.9429
272	1	97.9776	91.9013	106.0570
273	1	97.9776	93.9429	91.9013
274	1	97.9776	93.9429	108.0990
275	1	97.9786	100.0000	89.7574
276	1	97.9786	100.0000	110.2430
277	1	97.9776	106.0570	91.9013
278	1	97.9776	106.0570	108.0990
279	1	97.9776	108.0990	93.9429
280	1	97.9776	108.0990	106.0570
281	1	97.9786	110.2430	100.0000
282	1	100.0000	89.7574	97.9786
283	1	100.0000	89.7574	102.0210
284	1	100.0000	97.9786	89.7574
285	1	100.0000	97.9786	110.2430
286	1	100.0000	102.0210	89.7574
287	1	100.0000	102.0210	110.2430
288	1	100.0000	110.2430	97.9786
289	1	100.0000	110.2430	102.0210
290	1	102.0210	89.7574	100.0000
291	1	102.0220	91.9013	93.9429
292	1	102.0220	91.9013	106.0570
293	1	102.0220	93.9429	91.9013
294	1	102.0220	93.9429	108.0990
295	1	102.0210	100.0000	89.7574
296	1	102.0210	100.0000	110.2430
297	1	102.0220	106.0570	91.9013
298	1	102.0220	106.0570	108.0990
299	1	102.0220	108.0990	93.9429
300	1	102.0220	108.0990	106.0570
301	1	102.0210	110.2430	100.0000
302	1	106.0570	91.9013	97.9776
303	1	106.0570	91.9013	102.0220
304	1	106.0570	97.9776	91.9013
305	1	106.0570	97.9776	108.0990
306	1	106.0570	102.0220	91.9013
307	1	106.0570	102.0220	108.0990
308	1	106.0570	108.0990	97.9776
309	1	106.0570	108.0990	102.0220
310	1	108.0990	93.9429	97.9776
311	1	108.0990	93.9429	102.0220
312	1	108.0990	97.9776	93.9429
313	1	108.0990	97.9776	106.0570
314	1	108.0990	102.0220	93.9429
315	1	108.0990	102.0220	106.0570
316	1	108.0990	106.0570	97.9776
317	1	108.0990	106.0570	102.0220
318	1	110.2430	97.9786	100.0000
319	1	110.2430	100.0000	97.9786
320	1	110.2430	100.0000	102.0210
321	1	110.2430	102.0210	100.0000
322	1	89.7805	95.9597	97.9785
323	1	89.7805	95.9597	102.0210
324	1	89.7805	97.9785	95.9597
325	1	89.7805	97.9785	104.0400
326	1	89.7805	102.0210	95.9597
327	1	89.7805	102.0210	104.0400
328	1	89.7805	104.0400	97.9785
329	1	89.7805	104.0400	102.0210
330	1	95.9597	89.7805	97.9785
331	1	95.9597	89.7805	102.0210
332	1	95.9597	97.9785	89.7805
333	1	95.9597	97.9785	110.2190
334	1	95.9597	102.0210	89.7805
335	1	95.9597	102.0210	110.2190
336	1	95.9597	110.2190	97.9785
337	1	95.9597	110.2190	102.0210
338	1	97.9785	89.7805	95.9597
339	1	97.9785	89.7805	104.0400
340	1	97.9785	95.9597	89.7805
341	1	97.9785	95.9597	110.2190
342	1	97.9785	104.0400	89.7805
343	1	97.9785	104.0400	110.2190
344	1	97.9785	110.2190	95.9597
345	1	97.9785	110.2190	104.0400
346	1	102.0210	89.7805	95.9597
347	1	102.0210	89.7805	104.0400
348	1	102.0210	95.9597	89.7805
349	1	102.0210	95.9597	110.2190
350	1	102.0210	104.0400	89.7805
351	1	102.0210	104.0400	110.2190
352	1	102.0210	110.2190	95.9597
353	1	102.0210	110.2190	104.0400
354	1	104.0400	89.7805	97.9785
355	1	104.0400	89.7805	102.0210
356	1	104.0400	97.9785	89.7805
357	1	104.0400	97.9785	110.2190
358	1	104.0400	102.0210	89.7805
359	1	104.0400	102.0210	110.2190
360	1	104.0400	110.2190	97.9785
361	1	104.0400	110.2190	102.0210
362	1	110.2190	95.9597	97.9785
363	1	110.2190	95.9597	102.0210
364	1	110.2190	97.9785	95.9597
365	1	110.2190	97.9785	104.0400
366	1	110.2190	102.0210	95.9597
367	1	110.2190	102.0210	104.0400
368	1	110.2190	104.0400	97.9785
369	1	110.2190	104.0400	102.0210
370	1	91.9433	91.9433	100.0000
371	1	91.9433	100.0000	91.9433
372	1	91.9433	100.0000	108.0570
373	1	91.9433	108.0570	100.0000
374	1	100.0000	91.9433	91.9433
375	1	100.0000	91.9433	108.0570
376	1	100.0000	108.0570	91.9433
377	1	100.0000	108.0570	108.0570
378	1	108.0570	91.9433	100.0000
379	1	108.0570	100.0000	91.9433
380	1	108.0570	100.0000	108.0570
381	1	108.0570	108.0570	100.0000
382	1	89.8026	93.9461	100.0000
383	1	89.8026	100.0000	93.9461
384	1	89.8026	100.0000	106.0540
385	1	89.8026	106.0540	100.0000
386	1	91.8737	93.8989	93.8989
387	1	91.8737	93.8989	106.1010
388	1	91.8737	106.1010	93.8989
389	1	91.8737	106.1010	106.1010
390	1	93.9461	89.8026	100.0000
391	1	93.8989	91.8737	93.8989
392	1	93.8989	91.8737	106.1010
393	1	93.8989	93.8989	91.8737
394	1	93.8989	93.8989	108.1260
395	1	93.9461	100.0000	89.8026
396	1	93.9461	100.0000	110.1970
397	1	93.8989	106.1010	91.8737
398	1	93.8989	106.1010	108.1260
399	1	93.8989	108.1260	93.8989
400	1	93.8989	108.1260	106.1010
401	1	93.9461	110.1970	100.0000
402	1	100.0000	89.8026	93.9461
403	1	100.0000	89.8026	106.0540
404	1	100.0000	93.9461	89.8026
405	1	100.0000	93.9461	110.1970
406	1	100.0000	106.0540	89.8026
407	1	100.0000	106.0540	110.1970
408	1	100.0000	110.1970	93.9461
409	1	100.0000	110.1970	106.0540
410	1	106.0540	89.8026	100.0000
411	1	106.1010	91.8737	93.8989
412	1	106.1010	91.8737	106.1010
413	1	106.1010	93.8989	91.8737
414	1	106.1010	93.8989	108.1260
415	1	106.0540	100.0000	89.8026
416	1	106.0540	100.0000	110.1970
417	1	106.1010	106.1010	91.8737
418	1	106.1010	106.1010	108.1260
419	1	106.1010	108.1260	93.8989
420	1	106.1010	108.1260	106.1010
421	1	106.0540	110.1970	100.0000
422	1	108.1260	93.8989	93.8989
423	1	108.1260	93.8989	106.1010
424	1	108.1260	106.1010	93.8989
425	1	108.1260	106.1010	106.1010
426	1	110.1970	93.9461	100.0000
427	1	110.1970	100.0000	93.9461
428	1	110.1970	100.0000	106.0540
429	1	110.1970	106.0540	100.0000
430	1	91.8817	91.8817	95.9239
431	1	91.8817	91.8817	104.0760
432	1	91.8817	95.9239	91.8817
433	1	91.8817	95.9239	108.1180
434	1	91.8817	104.0760	91.8817
435	1	91.8817	104.0760	108.1180
436	1	91.8817	108.1180	95.9239
437	1	91.8817	108.1180	104.0760
438	1	95.9239	91.8817	91.8817
439	1	95.9239	91.8817	108.1180
440	1	95.9239	108.1180	91.8817
441	1	95.9239	108.1180	108.1180
442	1	104.0760	91.8817	91.8817
443	1	104.0760	91.8817	108.1180
444	1	104.0760	108.1180	91.8817
445	1	104.0760	108.1180	108.1180
446	1	108.1180	91.8817	95.9239
447	1	108.1180	91.8817	104.0760
448	1	108.1180	95.9239	91.8817
449	1	108.1180	95.9239	108.1180
450	1	108.1180	104.0760	91.8817
451	1	108.1180	104.0760	108.1180
452	1	108.1180	108.1180	95.9239
453	1	108.1180	108.1180	104.0760
454	1	89.8511	93.9406	95.9549
455	1	89.8511	93.9406	104.0450
456	1	89.8511	95.9549	93.9406
457	1	89.8511	95.9549	106.0590
458	1	89.8511	104.0450	93.9406
459	1	89.8511	104.0450	106.0590
460	1	89.8511	106.0590	95.9549
461	1	89.8511	106.0590	104.0450
462	1	93.9406	89.8511	95.9549
463	1	93.9406	89.8511	104.0450
464	1	93.9406	95.9549	89.8511
465	1	93.9406	95.9549	110.1490
466	1	93.9406	104.0450	89.8511
467	1	93.9406	104.0450	110.1490
468	1	93.9406	110.1490	95.9549
469	1	93.9406	110.1490	104.0450
470	1	95.9549	89.8511	93.9406
471	1	95.9549	89.8511	106.0590
472	1	95.9549	93.9406	89.8511
473	1	95.9549	93.9406	110.1490
474	1	95.9549	106.0590	89.8511
475	1	95.9549	106.0590	110.1490
476	1	95.9549	110.1490	93.9406
477	1	95.9549	110.1490	106.0590
478	1	104.0450	89.8511	93.9406
479	1	104.0450	89.8511	106.0590
480	1	104.0450	93.9406	89.8511
481	1	104.0450	93.9406	110.1490
482	1	104.0450	106.0590	89.8511
483	1	104.0450	106.0590	110.1490
484	1	104.0450	110.1490	93.9406
485	1	104.0450	110.1490	106.0590
486	1	106.0590	89.8511	95.9549
487	1	106.0590	89.8511	104.0450
488	1	106.0590	95.9549	89.8511
489	1	106.0590	95.9549	110.1490
490	1	106.0590	104.0450	89.8511
491	1	106.0590	104.0450	110.1490
492	1	106.0590	110.1490	95.9549
493	1	106.0590	110.1490	104.0450
494	1	110.1490	93.9406	95.9549
495	1	110.1490	93.9406	104.0450
496	1	110.1490	95.9549	93.9406
497	1	110.1490	95.9549	106.0590
498	1	110.1490	104.0450	93.9406
499	1	110.1490	104.0450	106.0590
500	1	110.1490	106.0590	95.9549
501	1	110.1490	106.0590	104.0450
502	1	89.8659	91.9368	97.9715
503	1	89.8659	91.9368	102.0280
504	1	89.8659	108.0630	97.9715
505	1	89.8659	108.0630	102.0280
506	1	91.9368	89.8659	97.9715
507	1	91.9368	89.8659	102.0280
508	1	91.9368	110.1340	97.9715
509	1	91.9368	110.1340	102.0280
510	1	108.0630	89.8659	97.9715
511	1	108.0630	89.8659	102.0280
512	1	108.0630	110.1340	97.9715
513	1	108.0630	110.1340	102.0280
514	1	110.1340	91.9368	97.9715
515	1	110.1340	91.9368	102.0280
516	1	110.1340	108.0630	97.9715
517	1	110.1340	108.0630	102.0280
518	1	89.8659	97.9715	91.9368
519	1	89.8659	97.9715	108.0630
520	1	89.8659	102.0280	91.9368
521	1	89.8659	102.0280	108.0630
522	1	91.9368	97.9715	89.8659
523	1	91.9368	97.9715	110.1340
524	1	91.9368	102.0280	89.8659
525	1	91.9368	102.0280	110.1340
526	1	97.9715	89.8659	91.9368
527	1	97.9715	89.8659	108.0630
528	1	97.9715	91.9368	89.8659
529	1	97.9715	91.9368	110.1340
530	1	97.9715	108.0630	89.8659
531	1	97.9715	108.0630	110.1340
532	1	97.9715	110.1340	91.9368
533	1	97.9715	110.1340	108.0630
534	1	102.0280	89.8659	91.9368
535	1	102.0280	89.8659	108.0630
536	1	102.0280	91.9368	89.8659
537	1	102.0280	91.9368	110.1340
538	1	102.0280	108.0630	89.8659
539	1	102.0280	108.0630	110.1340
540	1	102.0280	110.1340	91.9368
541	1	102.0280	110.1340	108.0630
542	1	108.0630	97.9715	89.8659
543	1	108.0630	97.9715	110.1340
544	1	108.0630	102.0280	89.8659
545	1	108.0630	102.0280	110.1340
546	1	110.1340	97.9715	91.9368
547	1	110.1340	97.9715	108.0630
548	1	110.1340	102.0280	91.9368
549	1	110.1340	102.0280	108.0630
550	1	89.9426	89.9426	100.0000
551	1	89.9426	100.0000	89.9426
552	1	89.9426	100.0000	110.0570
553	1	89.9426	110.0570	100.0000
554	1	100.0000	89.9426	89.9426
555	1	100.0000	89.9426	110.0570
556	1	100.0000	110.0570	89.9426
557	1	100.0000	110.0570	110.0570
558	1	110.0570	89.9426	100.0000
559	1	110.0570	100.0000	89.9426
560	1	110.0570	100.0000	110.0570
561	1	110.0570	110.0570	100.0000
562	1	87.8155	100.0000	100.0000
563	1	100.0000	87.8155	100.0000
564	1	100.0000	100.0000	87.8155
565	1	100.0000	100.0000	112.1850
566	1	100.0000	112.1850	100.0000
567	1	112.1850	100.0000	100.0000
568	1	87.8253	97.9709	97.9709
569	1	87.8253	97.9709	102.0290
570	1	87.8253	102.0290	97.9709
571	1	87.8253	102.0290	102.0290
572	1	97.9709	87.8253	97.9709
573	1	97.9709	87.8253	102.0290
574	1	97.9709	112.1750	97.9709
575	1	97.9709	112.1750	102.0290
576	1	102.0290	87.8253	97.9709
577	1	102.0290	87.8253	102.0290
578	1	102.0290	112.1750	97.9709
579	1	102.0290	112.1750	102.0290
580	1	112.1750	97.9709	97.9709
581	1	112.1750	97.9709	102.0290
582	1	112.1750	102.0290	97.9709
583	1	112.1750	102.0290	102.0290
584	1	97.9709	97.9709	87.8253
585	1	97.9709	97.9709	112.1750
586	1	97.9709	102.0290	87.8253
587	1	97.9709	102.0290	112.1750
588	1	102.0290	97.9709	87.8253
589	1	102.0290	97.9709	112.1750
590	1	102.0290	102.0290	87.8253
591	1	102.0290	102.0290	112.1750
592	1	87.8346	95.9454	100.0000
593	1	87.8346	100.0000	95.9454
594	1	87.8346	100.0000	104.0550
595	1	87.8346	104.0550	100.0000
596	1	95.9454	87.8346	100.0000
597	1	95.9454	100.0000	87.8346
598	1	95.9454	100.0000	112.1650
599	1	95.9454	112.1650	100.0000
600	1	100.0000	87.8346	95.9454
601	1	100.0000	87.8346	104.0550
602	1	100.0000	95.9454	87.8346
603	1	100.0000	95.9454	112.1650
604	1	100.0000	104.0550	87.8346
605	1	100.0000	104.0550	112.1650
606	1	100.0000	112.1650	95.9454
607	1	100.0000	112.1650	104.0550
608	1	104.0550	87.8346	100.0000
609	1	104.0550	100.0000	87.8346
610	1	104.0550	100.0000	112.1650
611	1	104.0550	112.1650	100.0000
612	1	112.1650	95.9454	100.0000
613	1	112.1650	100.0000	95.9454
614	1	112.1650	100.0000	104.0550
615	1	112.1650	104.0550	100.0000
616	1	87.8601	95.9400	95.9400
617	1	87.8601	95.9400	104.0600
618	1	87.8601	104.0600	95.9400
619	1	87.8601	104.0600	104.0600
620	1	95.9400	87.8601	95.9400
621	1	95.9400	87.8601	104.0600
622	1	95.9400	95.9400	87.8601
623	1	95.9400	95.9400	112.1400
624	1	95.9400	104.0600	87.8601
625	1	95.9400	104.0600	112.1400
626	1	95.9400	112.1400	95.9400
627	1	95.9400	112.1400	104.0600
628	1	104.0600	87.8601	95.9400
629	1	104.0600	87.8601	104.0600
630	1	104.0600	95.9400	87.8601
631	1	104.0600	95.9400	112.1400
632	1	104.0600	104.0600	87.8601
633	1	104.0600	104.0600	112.1400
634	1	104.0600	112.1400	95.9400
635	1	104.0600	112.1400	104.0600
636	1	112.1400	95.9400	95.9400
637	1	112.1400	95.9400	104.0600
638	1	112.1400	104.0600	95.9400
639	1	112.1400	104.0600	104.0600
640	1	87.8669	93.9221	97.9654
641	1	87.8669	93.9221	102.0350
642	1	87.8669	97.9654	93.9221
643	1	87.8669	97.9654	106.0780
644	1	87.8669	102.0350	93.9221
645	1	87.8669	102.0350	106.0780
646	1	87.8669	106.0780	97.9654
647	1	87.8669	106.0780	102.0350
648	1	93.9221	87.8669	97.9654
649	1	93.9221	87.8669	102.0350
650	1	93.9221	97.9654	87.8669
651	1	93.9221	97.9654	112.1330
652	1	93.9221	102.0350	87.8669
653	1	93.9221	102.0350	112.1330
654	1	93.9221	112.1330	97.9654
655	1	93.9221	112.1330	102.0350
656	1	97.9654	87.8669	93.9221
657	1	97.9654	87.8669	106.0780
658	1	97.9654	93.9221	87.8669
659	1	97.9654	93.9221	112.1330
660	1	97.9654	106.0780	87.8669
661	1	97.9654	106.0780	112.1330
662	1	97.9654	112.1330	93.9221
663	1	97.9654	112.1330	106.0780
664	1	102.0350	87.8669	93.9221
665	1	102.0350	87.8669	106.0780
666	1	102.0350	93.9221	87.8669
667	1	102.0350	93.9221	112.1330
668	1	102.0350	106.0780	87.8669
669	1	102.0350	106.0780	112.1330
670	1	102.0350	112.1330	93.9221
671	1	102.0350	112.1330	106.0780
672	1	106.0780	87.8669	97.9654
673	1	106.0780	87.8669	102.0350
674	1	106.0780	97.9654	87.8669
675	1	106.0780	97.9654	112.1330
676	1	106.0780	102.0350	87.8669
677	1	106.0780	102.0350	112.1330
678	1	106.0780	112.1330	97.9654
679	1	106.0780	112.1330	102.0350
680	1	112.1330	93.9221	97.9654
681	1	112.1330	93.9221	102.0350
682	1	112.1330	97.9654	93.9221
683	1	112.1330	97.9654	106.0780
684	1	112.1330	102.0350	93.9221
685	1	112.1330	102.0350	106.0780
686	1	112.1330	106.0780	97.9654
687	1	112.1330	106.0780	102.0350
688	1	91.8972	91.8972	91.8972
689	1	91.8972	91.8972	108.1030
690	1	91.8972	108.1030	91.8972
691	1	91.8972	108.1030	108.1030
692	1	108.1030	91.8972	91.8972
693	1	108.1030	91.8972	108.1030
694	1	108.1030	108.1030	91.8972
695	1	108.1030	108.1030	108.1030
696	1	89.8817	91.9026	93.9184
697	1	89.8817	91.9026	106.0820
698	1	89.8817	108.0970	93.9184
699	1	89.8817	108.0970	106.0820
700	1	91.9026	89.8817	93.9184
701	1	91.9026	89.8817	106.0820
702	1	91.9026	110.1180	93.9184
703	1	91.9026	110.1180	106.0820
704	1	108.0970	89.8817	93.9184
705	1	108.0970	89.8817	106.0820
706	1	108.0970	110.1180	93.9184
707	1	108.0970	110.1180	106.0820
708	1	110.1180	91.9026	93.9184
709	1	110.1180	91.9026	106.0820
710	1	110.1180	108.0970	93.9184
711	1	110.1180	108.0970	106.0820
712	1	89.8817	93.9184	91.9026
713	1	89.8817	93.9184	108.0970
714	1	89.8817	106.0820	91.9026
715	1	89.8817	106.0820	108.0970
716	1	91.9026	93.9184	89.8817
717	1	91.9026	93.9184	110.1180
718	1	91.9026	106.0820	89.8817
719	1	91.9026	106.0820	110.1180
720	1	93.9184	89.8817	91.9026
721	1	93.9184	89.8817	108.0970
722	1	93.9184	91.9026	89.8817
723	1	93.9184	91.9026	110.1180
724	1	93.9184	108.0970	89.8817
725	1	93.9184	108.0970	110.1180
726	1	93.9184	110.1180	91.9026
727	1	93.9184	110.1180	108.0970
728	1	106.0820	89.8817	91.9026
729	1	106.0820	89.8817	108.0970
730	1	106.0820	91.9026	89.8817
731	1	106.0820	91.9026	110.1180
732	1	106.0820	108.0970	89.8817
733	1	106.0820	108.0970	110.1180
734	1	106.0820	110.1180	91.9026
735	1	106.0820	110.1180	108.0970
736	1	108.0970	93.9184	89.8817
737	1	108.0970	93.9184	110.1180
738	1	108.0970	106.0820	89.8817
739	1	108.0970	106.0820	110.1180
740	1	110.1180	93.9184	91.9026
741	1	110.1180	93.9184	108.0970
742	1	110.1180	106.0820	91.9026
743	1	110.1180	106.0820	108.0970
744	1	87.8923	91.9146	100.0000
745	1	87.8923	100.0000	91.9146
746	1	87.8923	100.0000	108.0850
747	1	87.8923	108.0850	100.0000
748	1	91.9146	87.8923	100.0000
749	1	91.9146	100.0000	87.8923
750	1	91.9146	100.0000	112.1080
751	1	91.9146	112.1080	100.0000
752	1	100.0000	87.8923	91.9146
753	1	100.0000	87.8923	108.0850
754	1	100.0000	91.9146	87.8923
755	1	100.0000	91.9146	112.1080
756	1	100.0000	108.0850	87.8923
757	1	100.0000	108.0850	112.1080
758	1	100.0000	112.1080	91.9146
759	1	100.0000	112.1080	108.0850
760	1	108.0850	87.8923	100.0000
761	1	108.0850	100.0000	87.8923
762	1	108.0850	100.0000	112.1080
763	1	108.0850	112.1080	100.0000
764	1	112.1080	91.9146	100.0000
765	1	112.1080	100.0000	91.9146
766	1	112.1080	100.0000	108.0850
767	1	112.1080	108.0850	100.0000
768	1	87.9769	93.9420	93.9420
769	1	87.9769	93.9420	106.0580
770	1	87.9769	106.0580	93.9420
771	1	87.9769	106.0580	106.0580
772	1	89.8916	89.8916	95.9482
773	1	89.8916	89.8916	104.0520
774	1	89.8916	95.9482	89.8916
775	1	89.8916	95.9482	110.1080
776	1	89.8916	104.0520	89.8916
777	1	89.8916	104.0520	110.1080
778	1	89.8916	110.1080	95.9482
779	1	89.8916	110.1080	104.0520
780	1	93.9420	87.9769	93.9420
781	1	93.9420	87.9769	106.0580
782	1	93.9420	93.9420	87.9769
783	1	93.9420	93.9420	112.0230
784	1	93.9420	106.0580	87.9769
785	1	93.9420	106.0580	112.0230
786	1	93.9420	112.0230	93.9420
787	1	93.9420	112.0230	106.0580
788	1	95.9482	89.8916	89.8916
789	1	95.9482	89.8916	110.1080
790	1	95.9482	110.1080	89.8916
791	1	95.9482	110.1080	110.1080
792	1	104.0520	89.8916	89.8916
793	1	104.0520	89.8916	110.1080
794	1	104.0520	110.1080	89.8916
795	1	104.0520	110.1080	110.1080
796	1	106.0580	87.9769	93.9420
797	1	106.0580	87.9769	106.0580
798	1	106.0580	93.9420	87.9769
799	1	106.0580	93.9420	112.0230
800	1	106.0580	106.0580	87.9769
801	1	106.0580	106.0580	112.0230
802	1	106.0580	112.0230	93.9420
803	1	106.0580	112.0230	106.0580
804	1	110.1080	89.8916	95.9482
805	1	110.1080	89.8916	104.0520
806	1	110.1080	95.9482	89.8916
807	1	110.1080	95.9482	110.1080
808	1	110.1080	104.0520	89.8916
809	1	110.1080	104.0520	110.1080
810	1	110.1080	110.1080	95.9482
811	1	110.1080	110.1080	104.0520
812	1	112.0230	93.9420	93.9420
813	1	112.0230	93.9420	106.0580
814	1	112.0230	106.0580	93.9420
815	1	112.0230	106.0580	106.0580
816	1	87.9793	91.9340	95.9612
817	1	87.9793	91.9340	104.0390
818	1	87.9793	95.9612	91.9340
819	1	87.9793	95.9612	108.0660
820	1	87.9793	104.0390	91.9340
821	1	87.9793	104.0390	108.0660
822	1	87.9793	108.0660	95.9612
823	1	87.9793	108.0660	104.0390
824	1	91.9340	87.9793	95.9612
825	1	91.9340	87.9793	104.0390
826	1	91.9340	95.9612	87.9793
827	1	91.9340	95.9612	112.0210
828	1	91.9340	104.0390	87.9793
829	1	91.9340	104.0390	112.0210
830	1	91.9340	112.0210	95.9612
831	1	91.9340	112.0210	104.0390
832	1	95.9612	87.9793	91.9340
833	1	95.9612	87.9793	108.0660
834	1	95.9612	91.9340	87.9793
835	1	95.9612	91.9340	112.0210
836	1	95.9612	108.0660	87.9793
837	1	95.9612	108.0660	112.0210
838	1	95.9612	112.0210	91.9340
839	1	95.9612	112.0210	108.0660
840	1	104.0390	87.9793	91.9340
841	1	104.0390	87.9793	108.0660
842	1	104.0390	91.9340	87.9793
843	1	104.0390	91.9340	112.0210
844	1	104.0390	108.0660	87.9793
845	1	104.0390	108.0660	112.0210
846	1	104.0390	112.0210	91.9340
847	1	104.0390	112.0210	108.0660
848	1	108.0660	87.9793	95.9612
849	1	108.0660	87.9793	104.0390
850	1	108.0660	95.9612	87.9793
851	1	108.0660	95.9612	112.0210
852	1	108.0660	104.0390	87.9793
853	1	108.0660	104.0390	112.0210
854	1	108.0660	112.0210	95.9612
855	1	108.0660	112.0210	104.0390
856	1	112.0210	91.9340	95.9612
857	1	112.0210	91.9340	104.0390
858	1	112.0210	95.9612	91.9340
859	1	112.0210	95.9612	108.0660
860	1	112.0210	104.0390	91.9340
861	1	112.0210	104.0390	108.0660
862	1	112.0210	108.0660	95.9612
863	1	112.0210	108.0660	104.0390
864	1	87.9870	97.9986	89.9382
865	1	87.9870	97.9986	110.0620
866	1	87.9870	102.0010	89.9382
867	1	87.9870	102.0010	110.0620
868	1	97.9986	87.9870	89.9382
869	1	97.9986	87.9870	110.0620
870	1	97.9986	112.0130	89.9382
871	1	97.9986	112.0130	110.0620
872	1	102.0010	87.9870	89.9382
873	1	102.0010	87.9870	110.0620
874	1	102.0010	112.0130	89.9382
875	1	102.0010	112.0130	110.0620
876	1	112.0130	97.9986	89.9382
877	1	112.0130	97.9986	110.0620
878	1	112.0130	102.0010	89.9382
879	1	112.0130	102.0010	110.0620
880	1	87.9870	89.9382	97.9986
881	1	87.9870	89.9382	102.0010
882	1	87.9870	110.0620	97.9986
883	1	87.9870	110.0620	102.0010
884	1	89.9382	87.9870	97.9986
885	1	89.9382	87.9870	102.0010
886	1	89.9382	97.9986	87.9870
887	1	89.9382	97.9986	112.0130
888	1	89.9382	102.0010	87.9870
889	1	89.9382	102.0010	112.0130
890	1	89.9382	112.0130	97.9986
891	1	89.9382	112.0130	102.0010
892	1	97.9986	89.9382	87.9870
893	1	97.9986	89.9382	112.0130
894	1	97.9986	110.0620	87.9870
895	1	97.9986	110.0620	112.0130
896	1	102.0010	89.9382	87.9870
897	1	102.0010	89.9382	112.0130
898	1	102.0010	110.0620	87.9870
899	1	102.0010	110.0620	112.0130
900	1	110.0620	87.9870	97.9986
901	1	110.0620	87.9870	102.0010
902	1	110.0620	97.9986	87.9870
903	1	110.0620	97.9986	112.0130
904	1	110.0620	102.0010	87.9870
905	1	110.0620	102.0010	112.0130
906	1	110.0620	112.0130	97.9986
907	1	110.0620	112.0130	102.0010
908	1	112.0130	89.9382	97.9986
909	1	112.0130	89.9382	102.0010
910	1	112.0130	110.0620	97.9986
911	1	112.0130	110.0620	102.0010
912	1	88.0533	88.0533	100.0000
913	1	88.0533	100.0000	88.0533
914	1	88.0533	100.0000	111.9470
915	1	88.0533	111.9470	100.0000
916	1	100.0000	88.0533	88.0533
917	1	100.0000	88.0533	111.9470
918	1	100.0000	111.9470	88.0533
919	1	100.0000	111.9470	111.9470
920	1	111.9470	88.0533	100.0000
921	1	111.9470	100.0000	88.0533
922	1	111.9470	100.0000	111.9470
923	1	111.9470	111.9470	100.0000


